 Entering Gaussian System, Link 0=g16
 Initial command:
 /opt/gaussian/g16/l1.exe "/tmp/Gau-20365.inp" -scrdir="/tmp/"
 Entering Link 1 = /opt/gaussian/g16/l1.exe PID=     20366.
  
 Copyright (c) 1988-2019, Gaussian, Inc.  All Rights Reserved.
  
 This is part of the Gaussian(R) 16 program.  It is based on
 the Gaussian(R) 09 system (copyright 2009, Gaussian, Inc.),
 the Gaussian(R) 03 system (copyright 2003, Gaussian, Inc.),
 the Gaussian(R) 98 system (copyright 1998, Gaussian, Inc.),
 the Gaussian(R) 94 system (copyright 1995, Gaussian, Inc.),
 the Gaussian 92(TM) system (copyright 1992, Gaussian, Inc.),
 the Gaussian 90(TM) system (copyright 1990, Gaussian, Inc.),
 the Gaussian 88(TM) system (copyright 1988, Gaussian, Inc.),
 the Gaussian 86(TM) system (copyright 1986, Carnegie Mellon
 University), and the Gaussian 82(TM) system (copyright 1983,
 Carnegie Mellon University). Gaussian is a federally registered
 trademark of Gaussian, Inc.
  
 This software contains proprietary and confidential information,
 including trade secrets, belonging to Gaussian, Inc.
  
 This software is provided under written license and may be
 used, copied, transmitted, or stored only in accord with that
 written license.
  
 The following legend is applicable only to US Government
 contracts under FAR:
  
                    RESTRICTED RIGHTS LEGEND
  
 Use, reproduction and disclosure by the US Government is
 subject to restrictions as set forth in subparagraphs (a)
 and (c) of the Commercial Computer Software - Restricted
 Rights clause in FAR 52.227-19.
  
 Gaussian, Inc.
 340 Quinnipiac St., Bldg. 40, Wallingford CT 06492
  
  
 ---------------------------------------------------------------
 Warning -- This program may not be used in any manner that
 competes with the business of Gaussian, Inc. or will provide
 assistance to any competitor of Gaussian, Inc.  The licensee
 of this program is prohibited from giving any competitor of
 Gaussian, Inc. access to this program.  By using this program,
 the user acknowledges that Gaussian, Inc. is engaged in the
 business of creating and licensing software in the field of
 computational chemistry and represents and warrants to the
 licensee that it is not a competitor of Gaussian, Inc. and that
 it will not use this program in any manner prohibited above.
 ---------------------------------------------------------------
  

 Cite this work as:
 Gaussian 16, Revision C.01,
 M. J. Frisch, G. W. Trucks, H. B. Schlegel, G. E. Scuseria, 
 M. A. Robb, J. R. Cheeseman, G. Scalmani, V. Barone, 
 G. A. Petersson, H. Nakatsuji, X. Li, M. Caricato, A. V. Marenich, 
 J. Bloino, B. G. Janesko, R. Gomperts, B. Mennucci, H. P. Hratchian, 
 J. V. Ortiz, A. F. Izmaylov, J. L. Sonnenberg, D. Williams-Young, 
 F. Ding, F. Lipparini, F. Egidi, J. Goings, B. Peng, A. Petrone, 
 T. Henderson, D. Ranasinghe, V. G. Zakrzewski, J. Gao, N. Rega, 
 G. Zheng, W. Liang, M. Hada, M. Ehara, K. Toyota, R. Fukuda, 
 J. Hasegawa, M. Ishida, T. Nakajima, Y. Honda, O. Kitao, H. Nakai, 
 T. Vreven, K. Throssell, J. A. Montgomery, Jr., J. E. Peralta, 
 F. Ogliaro, M. J. Bearpark, J. J. Heyd, E. N. Brothers, K. N. Kudin, 
 V. N. Staroverov, T. A. Keith, R. Kobayashi, J. Normand, 
 K. Raghavachari, A. P. Rendell, J. C. Burant, S. S. Iyengar, 
 J. Tomasi, M. Cossi, J. M. Millam, M. Klene, C. Adamo, R. Cammi, 
 J. W. Ochterski, R. L. Martin, K. Morokuma, O. Farkas, 
 J. B. Foresman, and D. J. Fox, Gaussian, Inc., Wallingford CT, 2019.
 
 ******************************************
 Gaussian 16:  ES64L-G16RevC.01  3-Jul-2019
                15-Jul-2021 
 ******************************************
 %nprocshared=24
 Will use up to   24 processors via shared memory.
 %mem=600MB
 %chk=NH2-M062X-jun-cc-pVTZ.chk
 ----------------------------
 # opt freq jun-cc-pvtz M062X
 ----------------------------
 1/18=20,19=15,26=3,38=1/1,3;
 2/9=110,12=2,17=6,18=5,40=1/2;
 3/5=16,6=1,7=60,11=2,25=1,30=1,71=1,74=-55/1,2,3;
 4//1;
 5/5=2,38=5/2;
 6/7=2,8=2,9=2,10=2,28=1/1;
 7//1,2,3,16;
 1/18=20,19=15,26=3/3(2);
 2/9=110/2;
 99//99;
 2/9=110/2;
 3/5=16,6=1,7=60,11=2,25=1,30=1,71=1,74=-55/1,2,3;
 4/5=5,16=3,69=1/1;
 5/5=2,38=5/2;
 7//1,2,3,16;
 1/18=20,19=15,26=3/3(-5);
 2/9=110/2;
 6/7=2,8=2,9=2,10=2,19=2,28=1/1;
 99/9=1/99;
 ---------------------
 NH2-M062X-jun-cc-pVTZ
 ---------------------
 Symbolic Z-matrix:
 Charge =  0 Multiplicity = 2
 N                     0.        0.        0.13962 
 H                     0.       -0.79868  -0.48867 
 H                     0.        0.79868  -0.48867 
 

 GradGradGradGradGradGradGradGradGradGradGradGradGradGradGradGradGradGrad
 Berny optimization.
 Initialization pass.
                           ----------------------------
                           !    Initial Parameters    !
                           ! (Angstroms and Degrees)  !
 --------------------------                            --------------------------
 ! Name  Definition              Value          Derivative Info.                !
 --------------------------------------------------------------------------------
 ! R1    R(1,2)                  1.0162         estimate D2E/DX2                !
 ! R2    R(1,3)                  1.0162         estimate D2E/DX2                !
 ! A1    A(2,1,3)              103.6188         estimate D2E/DX2                !
 --------------------------------------------------------------------------------
 Trust Radius=3.00D-01 FncErr=1.00D-07 GrdErr=1.00D-06 EigMax=2.50D+02 EigMin=1.00D-04
 Number of steps in this run=     20 maximum allowed number of steps=    100.
 GradGradGradGradGradGradGradGradGradGradGradGradGradGradGradGradGradGrad

                          Input orientation:                          
 ---------------------------------------------------------------------
 Center     Atomic      Atomic             Coordinates (Angstroms)
 Number     Number       Type             X           Y           Z
 ---------------------------------------------------------------------
      1          7           0        0.000000    0.000000    0.139619
      2          1           0        0.000000   -0.798676   -0.488665
      3          1           0        0.000000    0.798676   -0.488665
 ---------------------------------------------------------------------
                    Distance matrix (angstroms):
                    1          2          3
     1  N    0.000000
     2  H    1.016181   0.000000
     3  H    1.016181   1.597352   0.000000
 Stoichiometry    H2N(2)
 Framework group  C2V[C2(N),SGV(H2)]
 Deg. of freedom     2
 Full point group                 C2V     NOp   4
 Largest Abelian subgroup         C2V     NOp   4
 Largest concise Abelian subgroup C2      NOp   2
                         Standard orientation:                         
 ---------------------------------------------------------------------
 Center     Atomic      Atomic             Coordinates (Angstroms)
 Number     Number       Type             X           Y           Z
 ---------------------------------------------------------------------
      1          7           0        0.000000    0.000000    0.139619
      2          1           0        0.000000    0.798676   -0.488665
      3          1           0       -0.000000   -0.798676   -0.488665
 ---------------------------------------------------------------------
 Rotational constants (GHZ):         726.5986682         393.0617582         255.0756848
 Standard basis: Jun-CC-pVTZ (5D, 7F)
 There are    32 symmetry adapted cartesian basis functions of A1  symmetry.
 There are     8 symmetry adapted cartesian basis functions of A2  symmetry.
 There are    14 symmetry adapted cartesian basis functions of B1  symmetry.
 There are    21 symmetry adapted cartesian basis functions of B2  symmetry.
 There are    27 symmetry adapted basis functions of A1  symmetry.
 There are     8 symmetry adapted basis functions of A2  symmetry.
 There are    13 symmetry adapted basis functions of B1  symmetry.
 There are    19 symmetry adapted basis functions of B2  symmetry.
    67 basis functions,    96 primitive gaussians,    75 cartesian basis functions
     5 alpha electrons        4 beta electrons
       nuclear repulsion energy         7.6217960869 Hartrees.
 NAtoms=    3 NActive=    3 NUniq=    2 SFac= 2.25D+00 NAtFMM=   60 NAOKFM=F Big=F
 Integral buffers will be    131072 words long.
 Raffenetti 2 integral format.
 Two-electron integral symmetry is turned on.
 One-electron integrals computed using PRISM.
 PrsmSu:  requested number of processors reduced to:  10 ShMem   1 Linda.
 NBasis=    67 RedAO= T EigKep=  1.30D-03  NBF=    27     8    13    19
 NBsUse=    67 1.00D-06 EigRej= -1.00D+00 NBFU=    27     8    13    19
 ExpMin= 4.91D-02 ExpMax= 1.14D+04 ExpMxC= 3.89D+02 IAcc=3 IRadAn=         5 AccDes= 0.00D+00
 Harris functional with IExCor= 1009 and IRadAn=       5 diagonalized for initial guess.
 HarFok:  IExCor= 1009 AccDes= 0.00D+00 IRadAn=         5 IDoV= 1 UseB2=F ITyADJ=14
 ICtDFT=  3500011 ScaDFX=  1.000000  1.000000  1.000000  1.000000
 FoFCou: FMM=F IPFlag=           0 FMFlag=      100000 FMFlg1=           0
         NFxFlg=           0 DoJE=T BraDBF=F KetDBF=T FulRan=T
         wScrn=  0.000000 ICntrl=       500 IOpCl=  0 I1Cent=   200000004 NGrid=           0
         NMat0=    1 NMatS0=      1 NMatT0=    0 NMatD0=    1 NMtDS0=    0 NMtDT0=    0
 Petite list used in FoFCou.
 Initial guess orbital symmetries:
 Alpha Orbitals:
       Occupied  (A1) (A1) (B2) (A1) (B1)
       Virtual   (A1) (B2) (A1) (B1) (B2) (A1) (A1) (A2) (B1) (B2)
                 (A1) (B2) (A1) (B1) (A1) (B2) (A1) (A2) (A1) (B2)
                 (B1) (B2) (A1) (A2) (B1) (A1) (B2) (A1) (A1) (B2)
                 (B1) (B1) (A1) (A1) (B2) (A2) (B2) (B2) (A2) (B1)
                 (A1) (A1) (A2) (B2) (B1) (A1) (A1) (B2) (B2) (B1)
                 (B1) (A2) (A1) (A1) (B2) (B1) (A1) (A2) (A1) (B2)
                 (B2) (A1)
 Beta  Orbitals:
       Occupied  (A1) (A1) (B2) (A1)
       Virtual   (B1) (A1) (B2) (A1) (B1) (B2) (A1) (A1) (A2) (B1)
                 (B2) (A1) (B2) (A1) (B1) (A1) (B2) (A1) (A2) (A1)
                 (B2) (B1) (B2) (A1) (A2) (B1) (A1) (B2) (A1) (A1)
                 (B2) (B1) (B1) (A1) (A1) (B2) (A2) (B2) (B2) (A2)
                 (B1) (A1) (A1) (A2) (B2) (B1) (A1) (A1) (B2) (B2)
                 (B1) (B1) (A2) (A1) (A1) (B2) (B1) (A1) (A2) (A1)
                 (B2) (B2) (A1)
 The electronic state of the initial guess is 2-B1.
 Initial guess <Sx>= 0.0000 <Sy>= 0.0000 <Sz>= 0.5000 <S**2>= 0.7500 S= 0.5000
 Keep R1 and R2 ints in memory in symmetry-blocked form, NReq=24164103.
 Requested convergence on RMS density matrix=1.00D-08 within 128 cycles.
 Requested convergence on MAX density matrix=1.00D-06.
 Requested convergence on             energy=1.00D-06.
 No special actions if energy rises.
 SCF Done:  E(UM062X) =  -55.8716797721     A.U. after   10 cycles
            NFock= 10  Conv=0.28D-08     -V/T= 2.0048
 <Sx>= 0.0000 <Sy>= 0.0000 <Sz>= 0.5000 <S**2>= 0.7539 S= 0.5020
 <L.S>=  0.00000000000    
 Annihilation of the first spin contaminant:
 S**2 before annihilation     0.7539,   after     0.7500

 **********************************************************************

            Population analysis using the SCF Density.

 **********************************************************************

 Orbital symmetries:
 Alpha Orbitals:
       Occupied  (A1) (A1) (B2) (A1) (B1)
       Virtual   (A1) (B2) (B1) (A1) (B2) (A1) (A1) (A2) (B1) (B2)
                 (A1) (B2) (A1) (B1) (A1) (B2) (A1) (A2) (A1) (B2)
                 (B1) (B2) (A1) (A2) (B1) (A1) (B2) (A1) (A1) (B2)
                 (B1) (B1) (A1) (B2) (A2) (A1) (B2) (B2) (A2) (B1)
                 (A1) (A2) (A1) (B1) (B2) (A1) (A1) (B2) (B2) (B1)
                 (B1) (A2) (A1) (A1) (B2) (B1) (A1) (A2) (A1) (B2)
                 (B2) (A1)
 Beta  Orbitals:
       Occupied  (A1) (A1) (B2) (A1)
       Virtual   (B1) (A1) (B2) (A1) (B1) (B2) (A1) (A2) (A1) (A1)
                 (B1) (B2) (B2) (A1) (B1) (A1) (B2) (A1) (A2) (B1)
                 (A1) (B2) (B2) (A1) (B1) (A2) (A1) (B2) (A1) (A1)
                 (B2) (B1) (B1) (A1) (B2) (A2) (A1) (B2) (B2) (A2)
                 (B1) (A1) (A2) (A1) (B1) (B2) (A1) (B2) (A1) (B2)
                 (B1) (B1) (A2) (A1) (A1) (B2) (B1) (A1) (A2) (A1)
                 (B2) (B2) (A1)
 The electronic state is 2-B1.
 Alpha  occ. eigenvalues --  -14.77709  -0.96687  -0.55326  -0.41155  -0.39042
 Alpha virt. eigenvalues --    0.03004   0.06558   0.08950   0.09713   0.17779
 Alpha virt. eigenvalues --    0.19291   0.34097   0.36375   0.37466   0.40048
 Alpha virt. eigenvalues --    0.40794   0.57707   0.59483   0.62439   0.67050
 Alpha virt. eigenvalues --    0.77863   0.86181   0.97741   1.02685   1.03088
 Alpha virt. eigenvalues --    1.04413   1.30875   1.35738   1.41736   1.42072
 Alpha virt. eigenvalues --    1.57207   1.66390   1.68271   2.60277   2.81158
 Alpha virt. eigenvalues --    2.95856   2.96789   3.08086   3.23949   3.27929
 Alpha virt. eigenvalues --    3.30666   3.37375   3.47610   3.53375   3.59281
 Alpha virt. eigenvalues --    3.71727   3.83080   3.83986   3.85380   3.89172
 Alpha virt. eigenvalues --    3.98241   4.13588   4.16590   4.28647   4.51795
 Alpha virt. eigenvalues --    4.65161   4.68877   4.76517   5.18912   5.42396
 Alpha virt. eigenvalues --    5.44158   5.52568   5.61033   5.83555   5.90142
 Alpha virt. eigenvalues --    6.80982  11.65353
  Beta  occ. eigenvalues --  -14.76587  -0.90375  -0.53502  -0.37770
  Beta virt. eigenvalues --   -0.07157   0.02479   0.06531   0.09557   0.10925
  Beta virt. eigenvalues --    0.18199   0.19972   0.33498   0.33542   0.34765
  Beta virt. eigenvalues --    0.34784   0.39923   0.58578   0.60859   0.63990
  Beta virt. eigenvalues --    0.66427   0.74922   0.85656   0.96145   1.00466
  Beta virt. eigenvalues --    1.02163   1.02421   1.31730   1.37948   1.43448
  Beta virt. eigenvalues --    1.43572   1.57916   1.66047   1.70617   2.59350
  Beta virt. eigenvalues --    2.80289   2.97994   3.04361   3.09275   3.24941
  Beta virt. eigenvalues --    3.29294   3.31464   3.39615   3.48455   3.55514
  Beta virt. eigenvalues --    3.64049   3.73194   3.83692   3.84918   3.85781
  Beta virt. eigenvalues --    3.90672   4.01856   4.18340   4.21184   4.29988
  Beta virt. eigenvalues --    4.54795   4.74597   4.77283   4.78578   5.27648
  Beta virt. eigenvalues --    5.44028   5.49048   5.55395   5.66605   5.85523
  Beta virt. eigenvalues --    5.90643   6.91253  11.68303
          Condensed to atoms (all electrons):
               1          2          3
     1  N    6.924198   0.284354   0.284354
     2  H    0.284354   0.498874  -0.029681
     3  H    0.284354  -0.029681   0.498874
          Atomic-Atomic Spin Densities.
               1          2          3
     1  N    1.034220   0.009376   0.009376
     2  H    0.009376  -0.039089   0.003227
     3  H    0.009376   0.003227  -0.039089
 Mulliken charges and spin densities:
               1          2
     1  N   -0.492905   1.052972
     2  H    0.246453  -0.026486
     3  H    0.246453  -0.026486
 Sum of Mulliken charges =   0.00000   1.00000
 Mulliken charges and spin densities with hydrogens summed into heavy atoms:
               1          2
     1  N    0.000000   1.000000
 Electronic spatial extent (au):  <R**2>=             22.0793
 Charge=              0.0000 electrons
 Dipole moment (field-independent basis, Debye):
    X=             -0.0000    Y=             -0.0000    Z=             -1.8186  Tot=              1.8186
 Quadrupole moment (field-independent basis, Debye-Ang):
   XX=             -7.2971   YY=             -5.5916   ZZ=             -7.7317
   XY=              0.0000   XZ=              0.0000   YZ=              0.0000
 Traceless Quadrupole moment (field-independent basis, Debye-Ang):
   XX=             -0.4237   YY=              1.2819   ZZ=             -0.8582
   XY=              0.0000   XZ=              0.0000   YZ=              0.0000
 Octapole moment (field-independent basis, Debye-Ang**2):
  XXX=              0.0000  YYY=              0.0000  ZZZ=             -1.7444  XYY=             -0.0000
  XXY=              0.0000  XXZ=             -0.4309  XZZ=              0.0000  YZZ=             -0.0000
  YYZ=             -1.3709  XYZ=             -0.0000
 Hexadecapole moment (field-independent basis, Debye-Ang**3):
 XXXX=             -7.2634 YYYY=             -9.5783 ZZZZ=            -11.6894 XXXY=             -0.0000
 XXXZ=             -0.0000 YYYX=             -0.0000 YYYZ=              0.0000 ZZZX=             -0.0000
 ZZZY=              0.0000 XXYY=             -3.0900 XXZZ=             -3.1958 YYZZ=             -3.2473
 XXYZ=             -0.0000 YYXZ=              0.0000 ZZXY=             -0.0000
 N-N= 7.621796086882D+00 E-N=-1.459028063917D+02  KE= 5.560297743897D+01
 Symmetry A1   KE= 5.115787156302D+01
 Symmetry A2   KE= 2.315032062576D-32
 Symmetry B1   KE= 1.717460312690D+00
 Symmetry B2   KE= 2.727645563258D+00
 Symmetry A1   SP=-5.061934194413D-16
 Symmetry A2   SP= 9.553883797657D-35
 Symmetry B1   SP= 1.000000000000D+00
 Symmetry B2   SP= 9.152483568670D-15
                          Isotropic Fermi Contact Couplings
        Atom                 a.u.       MegaHertz       Gauss      10(-4) cm-1
     1  N(14)              0.21238      68.62160      24.48589      22.88970
     2  H(1)              -0.01635     -73.09837     -26.08332     -24.38299
     3  H(1)              -0.01635     -73.09837     -26.08332     -24.38299
 --------------------------------------------------------
       Center         ----  Spin Dipole Couplings  ----
                      3XX-RR        3YY-RR        3ZZ-RR
 --------------------------------------------------------
     1   Atom        2.140125     -1.068109     -1.072016
     2   Atom       -0.016862      0.041265     -0.024404
     3   Atom       -0.016862      0.041265     -0.024404
 --------------------------------------------------------
                        XY            XZ            YZ
 --------------------------------------------------------
     1   Atom       -0.000000     -0.000000      0.000000
     2   Atom       -0.000000      0.000000     -0.109595
     3   Atom       -0.000000     -0.000000      0.109595
 --------------------------------------------------------


 ---------------------------------------------------------------------------------
              Anisotropic Spin Dipole Couplings in Principal Axis System
 ---------------------------------------------------------------------------------

       Atom             a.u.   MegaHertz   Gauss  10(-4) cm-1        Axes

              Baa    -1.0720   -41.345   -14.753   -13.791  0.0000  0.0000  1.0000
     1 N(14)  Bbb    -1.0681   -41.195   -14.699   -13.741  0.0000  1.0000  0.0000
              Bcc     2.1401    82.540    29.452    27.532  1.0000  0.0000  0.0000
 
              Baa    -0.1060   -56.545   -20.176   -18.861 -0.0000  0.5971  0.8022
     2 H(1)   Bbb    -0.0169    -8.997    -3.210    -3.001  1.0000  0.0000  0.0000
              Bcc     0.1228    65.541    23.387    21.862 -0.0000  0.8022 -0.5971
 
              Baa    -0.1060   -56.545   -20.176   -18.861  0.0000 -0.5971  0.8022
     3 H(1)   Bbb    -0.0169    -8.997    -3.210    -3.001  1.0000  0.0000  0.0000
              Bcc     0.1228    65.541    23.387    21.862 -0.0000  0.8022  0.5971
 

 ---------------------------------------------------------------------------------

 PrsmSu:  requested number of processors reduced to:  10 ShMem   1 Linda.
 PrsmSu:  requested number of processors reduced to:  21 ShMem   1 Linda.
 Calling FoFJK, ICntrl=      2127 FMM=F ISym2X=1 I1Cent= 0 IOpClX= 1 NMat=1 NMatS=1 NMatT=0.
 CoulSu:  requested number of processors reduced to:  21 ShMem   1 Linda.
 ***** Axes restored to original set *****
 -------------------------------------------------------------------
 Center     Atomic                   Forces (Hartrees/Bohr)
 Number     Number              X              Y              Z
 -------------------------------------------------------------------
      1        7           0.000000000   -0.000000000    0.007906975
      2        1          -0.000000000   -0.005467510   -0.003953488
      3        1          -0.000000000    0.005467510   -0.003953488
 -------------------------------------------------------------------
 Cartesian Forces:  Max     0.007906975 RMS     0.004130748

 GradGradGradGradGradGradGradGradGradGradGradGradGradGradGradGradGradGrad
 Berny optimization.
 FormGI is forming the generalized inverse of G from B-inverse, IUseBI=4.
 Internal  Forces:  Max     0.006741595 RMS     0.005512815
 Search for a local minimum.
 Step number   1 out of a maximum of   20
 All quantities printed in internal units (Hartrees-Bohrs-Radians)
 Mixed Optimization -- RFO/linear search
 Second derivative matrix not updated -- first step.
 The second derivative matrix:
                          R1        R2        A1
           R1           0.44953
           R2           0.00000   0.44953
           A1           0.00000   0.00000   0.16000
 ITU=  0
     Eigenvalues ---    0.16000   0.44953   0.44953
 RFO step:  Lambda=-2.03833377D-04 EMin= 1.60000000D-01
 Linear search not attempted -- first point.
 Iteration  1 RMS(Cart)=  0.01165590 RMS(Int)=  0.00001479
 Iteration  2 RMS(Cart)=  0.00001456 RMS(Int)=  0.00000000
 Iteration  3 RMS(Cart)=  0.00000000 RMS(Int)=  0.00000000
 ClnCor:  largest displacement from symmetrization is 3.14D-16 for atom     3.
 Variable       Old X    -DE/DX   Delta X   Delta X   Delta X     New X
                                 (Linear)    (Quad)   (Total)
    R1        1.92030   0.00674   0.00000   0.01499   0.01499   1.93529
    R2        1.92030   0.00674   0.00000   0.01499   0.01499   1.93529
    A1        1.80849   0.00052   0.00000   0.00327   0.00327   1.81176
         Item               Value     Threshold  Converged?
 Maximum Force            0.006742     0.000450     NO 
 RMS     Force            0.005513     0.000300     NO 
 Maximum Displacement     0.013739     0.001800     NO 
 RMS     Displacement     0.011664     0.001200     NO 
 Predicted change in Energy=-1.019636D-04
 GradGradGradGradGradGradGradGradGradGradGradGradGradGradGradGradGradGrad

                          Input orientation:                          
 ---------------------------------------------------------------------
 Center     Atomic      Atomic             Coordinates (Angstroms)
 Number     Number       Type             X           Y           Z
 ---------------------------------------------------------------------
      1          7           0       -0.000000    0.000000    0.142010
      2          1           0       -0.000000   -0.805946   -0.489860
      3          1           0        0.000000    0.805946   -0.489860
 ---------------------------------------------------------------------
                    Distance matrix (angstroms):
                    1          2          3
     1  N    0.000000
     2  H    1.024114   0.000000
     3  H    1.024114   1.611892   0.000000
 Stoichiometry    H2N(2)
 Framework group  C2V[C2(N),SGV(H2)]
 Deg. of freedom     2
 Full point group                 C2V     NOp   4
 Largest Abelian subgroup         C2V     NOp   4
 Largest concise Abelian subgroup C2      NOp   2
                         Standard orientation:                         
 ---------------------------------------------------------------------
 Center     Atomic      Atomic             Coordinates (Angstroms)
 Number     Number       Type             X           Y           Z
 ---------------------------------------------------------------------
      1          7           0        0.000000    0.000000    0.140416
      2          1           0        0.000000    0.805946   -0.491454
      3          1           0       -0.000000   -0.805946   -0.491454
 ---------------------------------------------------------------------
 Rotational constants (GHZ):         718.3752462         386.0023795         251.0867188
 Standard basis: Jun-CC-pVTZ (5D, 7F)
 There are    32 symmetry adapted cartesian basis functions of A1  symmetry.
 There are     8 symmetry adapted cartesian basis functions of A2  symmetry.
 There are    14 symmetry adapted cartesian basis functions of B1  symmetry.
 There are    21 symmetry adapted cartesian basis functions of B2  symmetry.
 There are    27 symmetry adapted basis functions of A1  symmetry.
 There are     8 symmetry adapted basis functions of A2  symmetry.
 There are    13 symmetry adapted basis functions of B1  symmetry.
 There are    19 symmetry adapted basis functions of B2  symmetry.
    67 basis functions,    96 primitive gaussians,    75 cartesian basis functions
     5 alpha electrons        4 beta electrons
       nuclear repulsion energy         7.5623375880 Hartrees.
 NAtoms=    3 NActive=    3 NUniq=    2 SFac= 2.25D+00 NAtFMM=   60 NAOKFM=F Big=F
 Integral buffers will be    131072 words long.
 Raffenetti 2 integral format.
 Two-electron integral symmetry is turned on.
 One-electron integrals computed using PRISM.
 PrsmSu:  requested number of processors reduced to:  10 ShMem   1 Linda.
 NBasis=    67 RedAO= T EigKep=  1.34D-03  NBF=    27     8    13    19
 NBsUse=    67 1.00D-06 EigRej= -1.00D+00 NBFU=    27     8    13    19
 Initial guess from the checkpoint file:  "NH2-M062X-jun-cc-pVTZ.chk"
 B after Tr=    -0.000000   -0.000000    0.000000
         Rot=    1.000000   -0.000000    0.000000    0.000000 Ang=   0.00 deg.
 Initial guess orbital symmetries:
 Alpha Orbitals:
       Occupied  (A1) (A1) (B2) (A1) (B1)
       Virtual   (A1) (B2) (B1) (A1) (B2) (A1) (A1) (A2) (B1) (B2)
                 (A1) (B2) (A1) (B1) (A1) (B2) (A1) (A2) (A1) (B2)
                 (B1) (B2) (A1) (A2) (B1) (A1) (B2) (A1) (A1) (B2)
                 (B1) (B1) (A1) (B2) (A2) (A1) (B2) (B2) (A2) (B1)
                 (A1) (A2) (A1) (B1) (B2) (A1) (A1) (B2) (B2) (B1)
                 (B1) (A2) (A1) (A1) (B2) (B1) (A1) (A2) (A1) (B2)
                 (B2) (A1)
 Beta  Orbitals:
       Occupied  (A1) (A1) (B2) (A1)
       Virtual   (B1) (A1) (B2) (A1) (B1) (B2) (A1) (A2) (A1) (A1)
                 (B1) (B2) (B2) (A1) (B1) (A1) (B2) (A1) (A2) (B1)
                 (A1) (B2) (B2) (A1) (B1) (A2) (A1) (B2) (A1) (A1)
                 (B2) (B1) (B1) (A1) (B2) (A2) (A1) (B2) (B2) (A2)
                 (B1) (A1) (A2) (A1) (B1) (B2) (A1) (B2) (A1) (B2)
                 (B1) (B1) (A2) (A1) (A1) (B2) (B1) (A1) (A2) (A1)
                 (B2) (B2) (A1)
 Initial guess <Sx>= 0.0000 <Sy>= 0.0000 <Sz>= 0.5000 <S**2>= 0.7540 S= 0.5020
 Keep R1 and R2 ints in memory in symmetry-blocked form, NReq=24164103.
 Requested convergence on RMS density matrix=1.00D-08 within 128 cycles.
 Requested convergence on MAX density matrix=1.00D-06.
 Requested convergence on             energy=1.00D-06.
 No special actions if energy rises.
 SCF Done:  E(UM062X) =  -55.8717819242     A.U. after    8 cycles
            NFock=  8  Conv=0.74D-08     -V/T= 2.0053
 <Sx>= 0.0000 <Sy>= 0.0000 <Sz>= 0.5000 <S**2>= 0.7540 S= 0.5020
 <L.S>=  0.00000000000    
 Annihilation of the first spin contaminant:
 S**2 before annihilation     0.7540,   after     0.7500
 PrsmSu:  requested number of processors reduced to:  10 ShMem   1 Linda.
 PrsmSu:  requested number of processors reduced to:  21 ShMem   1 Linda.
 Calling FoFJK, ICntrl=      2127 FMM=F ISym2X=1 I1Cent= 0 IOpClX= 1 NMat=1 NMatS=1 NMatT=0.
 CoulSu:  requested number of processors reduced to:  21 ShMem   1 Linda.
 ***** Axes restored to original set *****
 -------------------------------------------------------------------
 Center     Atomic                   Forces (Hartrees/Bohr)
 Number     Number              X              Y              Z
 -------------------------------------------------------------------
      1        7           0.000000000    0.000000000    0.000908037
      2        1          -0.000000000    0.000145061   -0.000454019
      3        1          -0.000000000   -0.000145061   -0.000454019
 -------------------------------------------------------------------
 Cartesian Forces:  Max     0.000908037 RMS     0.000376959

 GradGradGradGradGradGradGradGradGradGradGradGradGradGradGradGradGradGrad
 Berny optimization.
 Using GEDIIS/GDIIS optimizer.
 FormGI is forming the generalized inverse of G from B-inverse, IUseBI=4.
 Internal  Forces:  Max     0.000864690 RMS     0.000517294
 Search for a local minimum.
 Step number   2 out of a maximum of   20
 All quantities printed in internal units (Hartrees-Bohrs-Radians)
 Mixed Optimization -- En-DIIS/RFO-DIIS
 Update second derivatives using D2CorX and points    1    2
 DE= -1.02D-04 DEPred=-1.02D-04 R= 1.00D+00
 TightC=F SS=  1.41D+00  RLast= 2.15D-02 DXNew= 5.0454D-01 6.4352D-02
 Trust test= 1.00D+00 RLast= 2.15D-02 DXMaxT set to 3.00D-01
 The second derivative matrix:
                          R1        R2        A1
           R1           0.44104
           R2          -0.00849   0.44104
           A1           0.02797   0.02797   0.16822
 ITU=  1  0
 Use linear search instead of GDIIS.
     Eigenvalues ---    0.16243   0.43834   0.44953
 RFO step:  Lambda=-4.87498092D-06 EMin= 1.62431523D-01
 Quartic linear search produced a step of  0.01091.
 Iteration  1 RMS(Cart)=  0.00303850 RMS(Int)=  0.00000584
 Iteration  2 RMS(Cart)=  0.00000565 RMS(Int)=  0.00000000
 Iteration  3 RMS(Cart)=  0.00000000 RMS(Int)=  0.00000000
 ClnCor:  largest displacement from symmetrization is 2.48D-16 for atom     3.
 Variable       Old X    -DE/DX   Delta X   Delta X   Delta X     New X
                                 (Linear)    (Quad)   (Total)
    R1        1.93529   0.00017   0.00016   0.00057   0.00074   1.93603
    R2        1.93529   0.00017   0.00016   0.00057   0.00074   1.93603
    A1        1.81176  -0.00086   0.00004  -0.00542  -0.00538   1.80638
         Item               Value     Threshold  Converged?
 Maximum Force            0.000865     0.000450     NO 
 RMS     Force            0.000517     0.000300     NO 
 Maximum Displacement     0.003033     0.001800     NO 
 RMS     Displacement     0.003041     0.001200     NO 
 Predicted change in Energy=-2.448953D-06
 GradGradGradGradGradGradGradGradGradGradGradGradGradGradGradGradGradGrad

                          Input orientation:                          
 ---------------------------------------------------------------------
 Center     Atomic      Atomic             Coordinates (Angstroms)
 Number     Number       Type             X           Y           Z
 ---------------------------------------------------------------------
      1          7           0       -0.000000   -0.000000    0.143615
      2          1           0       -0.000000   -0.804549   -0.490663
      3          1           0        0.000000    0.804549   -0.490663
 ---------------------------------------------------------------------
                    Distance matrix (angstroms):
                    1          2          3
     1  N    0.000000
     2  H    1.024503   0.000000
     3  H    1.024503   1.609097   0.000000
 Stoichiometry    H2N(2)
 Framework group  C2V[C2(N),SGV(H2)]
 Deg. of freedom     2
 Full point group                 C2V     NOp   4
 Largest Abelian subgroup         C2V     NOp   4
 Largest concise Abelian subgroup C2      NOp   2
                         Standard orientation:                         
 ---------------------------------------------------------------------
 Center     Atomic      Atomic             Coordinates (Angstroms)
 Number     Number       Type             X           Y           Z
 ---------------------------------------------------------------------
      1          7           0        0.000000    0.000000    0.140951
      2          1           0       -0.000000    0.804549   -0.493327
      3          1           0       -0.000000   -0.804549   -0.493327
 ---------------------------------------------------------------------
 Rotational constants (GHZ):         712.9317063         387.3446101         250.9826393
 Standard basis: Jun-CC-pVTZ (5D, 7F)
 There are    32 symmetry adapted cartesian basis functions of A1  symmetry.
 There are     8 symmetry adapted cartesian basis functions of A2  symmetry.
 There are    14 symmetry adapted cartesian basis functions of B1  symmetry.
 There are    21 symmetry adapted cartesian basis functions of B2  symmetry.
 There are    27 symmetry adapted basis functions of A1  symmetry.
 There are     8 symmetry adapted basis functions of A2  symmetry.
 There are    13 symmetry adapted basis functions of B1  symmetry.
 There are    19 symmetry adapted basis functions of B2  symmetry.
    67 basis functions,    96 primitive gaussians,    75 cartesian basis functions
     5 alpha electrons        4 beta electrons
       nuclear repulsion energy         7.5601584466 Hartrees.
 NAtoms=    3 NActive=    3 NUniq=    2 SFac= 2.25D+00 NAtFMM=   60 NAOKFM=F Big=F
 Integral buffers will be    131072 words long.
 Raffenetti 2 integral format.
 Two-electron integral symmetry is turned on.
 One-electron integrals computed using PRISM.
 PrsmSu:  requested number of processors reduced to:  10 ShMem   1 Linda.
 NBasis=    67 RedAO= T EigKep=  1.34D-03  NBF=    27     8    13    19
 NBsUse=    67 1.00D-06 EigRej= -1.00D+00 NBFU=    27     8    13    19
 Initial guess from the checkpoint file:  "NH2-M062X-jun-cc-pVTZ.chk"
 B after Tr=     0.000000   -0.000000   -0.000000
         Rot=    1.000000    0.000000    0.000000   -0.000000 Ang=   0.00 deg.
 Initial guess orbital symmetries:
 Alpha Orbitals:
       Occupied  (A1) (A1) (B2) (A1) (B1)
       Virtual   (A1) (B2) (B1) (A1) (B2) (A1) (A1) (A2) (B1) (B2)
                 (A1) (B2) (A1) (B1) (A1) (B2) (A1) (A2) (B2) (A1)
                 (B1) (B2) (A1) (A2) (B1) (A1) (B2) (A1) (A1) (B2)
                 (B1) (B1) (A1) (B2) (A2) (A1) (B2) (B2) (A2) (B1)
                 (A1) (A2) (A1) (B1) (B2) (A1) (A1) (B2) (B2) (B1)
                 (B1) (A2) (A1) (A1) (B2) (B1) (A1) (A2) (A1) (B2)
                 (B2) (A1)
 Beta  Orbitals:
       Occupied  (A1) (A1) (B2) (A1)
       Virtual   (B1) (A1) (B2) (A1) (B1) (B2) (A1) (A2) (A1) (B1)
                 (A1) (B2) (B2) (A1) (B1) (A1) (B2) (A1) (A2) (B1)
                 (B2) (A1) (B2) (A1) (B1) (A2) (A1) (B2) (A1) (A1)
                 (B2) (B1) (B1) (A1) (B2) (A2) (A1) (B2) (B2) (A2)
                 (B1) (A1) (A2) (A1) (B1) (B2) (A1) (B2) (A1) (B2)
                 (B1) (B1) (A2) (A1) (A1) (B2) (B1) (A1) (A2) (A1)
                 (B2) (B2) (A1)
 Initial guess <Sx>= 0.0000 <Sy>= 0.0000 <Sz>= 0.5000 <S**2>= 0.7540 S= 0.5020
 Keep R1 and R2 ints in memory in symmetry-blocked form, NReq=24164103.
 Requested convergence on RMS density matrix=1.00D-08 within 128 cycles.
 Requested convergence on MAX density matrix=1.00D-06.
 Requested convergence on             energy=1.00D-06.
 No special actions if energy rises.
 SCF Done:  E(UM062X) =  -55.8717845443     A.U. after    7 cycles
            NFock=  7  Conv=0.19D-08     -V/T= 2.0053
 <Sx>= 0.0000 <Sy>= 0.0000 <Sz>= 0.5000 <S**2>= 0.7540 S= 0.5020
 <L.S>=  0.00000000000    
 Annihilation of the first spin contaminant:
 S**2 before annihilation     0.7540,   after     0.7500
 PrsmSu:  requested number of processors reduced to:  10 ShMem   1 Linda.
 PrsmSu:  requested number of processors reduced to:  21 ShMem   1 Linda.
 Calling FoFJK, ICntrl=      2127 FMM=F ISym2X=1 I1Cent= 0 IOpClX= 1 NMat=1 NMatS=1 NMatT=0.
 CoulSu:  requested number of processors reduced to:  21 ShMem   1 Linda.
 ***** Axes restored to original set *****
 -------------------------------------------------------------------
 Center     Atomic                   Forces (Hartrees/Bohr)
 Number     Number              X              Y              Z
 -------------------------------------------------------------------
      1        7           0.000000000   -0.000000000    0.000062812
      2        1          -0.000000000    0.000009935   -0.000031406
      3        1          -0.000000000   -0.000009935   -0.000031406
 -------------------------------------------------------------------
 Cartesian Forces:  Max     0.000062812 RMS     0.000026067

 GradGradGradGradGradGradGradGradGradGradGradGradGradGradGradGradGradGrad
 Berny optimization.
 Using GEDIIS/GDIIS optimizer.
 FormGI is forming the generalized inverse of G from B-inverse, IUseBI=4.
 Internal  Forces:  Max     0.000059657 RMS     0.000035730
 Search for a local minimum.
 Step number   3 out of a maximum of   20
 All quantities printed in internal units (Hartrees-Bohrs-Radians)
 Mixed Optimization -- En-DIIS/RFO-DIIS
 Swapping is turned off.
 Update second derivatives using D2CorX and points    1    2    3
 DE= -2.62D-06 DEPred=-2.45D-06 R= 1.07D+00
 TightC=F SS=  1.41D+00  RLast= 5.48D-03 DXNew= 5.0454D-01 1.6446D-02
 Trust test= 1.07D+00 RLast= 5.48D-03 DXMaxT set to 3.00D-01
 The second derivative matrix:
                          R1        R2        A1
           R1           0.44091
           R2          -0.00862   0.44091
           A1           0.03043   0.03043   0.15789
 ITU=  1  1  0
     Eigenvalues ---    0.15130   0.43887   0.44953
 En-DIIS/RFO-DIIS/Sim-DIIS IScMMF=       -3 using points:     3    2
 RFO step:  Lambda=-2.50865161D-08.
 DidBck=F Rises=F RFO-DIIS coefs:    1.07416   -0.07416
 Iteration  1 RMS(Cart)=  0.00022560 RMS(Int)=  0.00000003
 Iteration  2 RMS(Cart)=  0.00000003 RMS(Int)=  0.00000000
 ClnCor:  largest displacement from symmetrization is 1.11D-16 for atom     3.
 Variable       Old X    -DE/DX   Delta X   Delta X   Delta X     New X
                                 (Linear)    (Quad)   (Total)
    R1        1.93603   0.00001   0.00005   0.00000   0.00006   1.93609
    R2        1.93603   0.00001   0.00005   0.00000   0.00006   1.93609
    A1        1.80638  -0.00006  -0.00040   0.00000  -0.00040   1.80598
         Item               Value     Threshold  Converged?
 Maximum Force            0.000060     0.000450     YES
 RMS     Force            0.000036     0.000300     YES
 Maximum Displacement     0.000225     0.001800     YES
 RMS     Displacement     0.000226     0.001200     YES
 Predicted change in Energy=-1.254326D-08
 Optimization completed.
    -- Stationary point found.
                           ----------------------------
                           !   Optimized Parameters   !
                           ! (Angstroms and Degrees)  !
 --------------------------                            --------------------------
 ! Name  Definition              Value          Derivative Info.                !
 --------------------------------------------------------------------------------
 ! R1    R(1,2)                  1.0245         -DE/DX =    0.0                 !
 ! R2    R(1,3)                  1.0245         -DE/DX =    0.0                 !
 ! A1    A(2,1,3)              103.498          -DE/DX =   -0.0001              !
 --------------------------------------------------------------------------------
 GradGradGradGradGradGradGradGradGradGradGradGradGradGradGradGradGradGrad

                          Input orientation:                          
 ---------------------------------------------------------------------
 Center     Atomic      Atomic             Coordinates (Angstroms)
 Number     Number       Type             X           Y           Z
 ---------------------------------------------------------------------
      1          7           0       -0.000000   -0.000000    0.143615
      2          1           0       -0.000000   -0.804549   -0.490663
      3          1           0        0.000000    0.804549   -0.490663
 ---------------------------------------------------------------------
                    Distance matrix (angstroms):
                    1          2          3
     1  N    0.000000
     2  H    1.024503   0.000000
     3  H    1.024503   1.609097   0.000000
 Stoichiometry    H2N(2)
 Framework group  C2V[C2(N),SGV(H2)]
 Deg. of freedom     2
 Full point group                 C2V     NOp   4
 Largest Abelian subgroup         C2V     NOp   4
 Largest concise Abelian subgroup C2      NOp   2
                         Standard orientation:                         
 ---------------------------------------------------------------------
 Center     Atomic      Atomic             Coordinates (Angstroms)
 Number     Number       Type             X           Y           Z
 ---------------------------------------------------------------------
      1          7           0        0.000000    0.000000    0.140951
      2          1           0       -0.000000    0.804549   -0.493327
      3          1           0       -0.000000   -0.804549   -0.493327
 ---------------------------------------------------------------------
 Rotational constants (GHZ):         712.9317063         387.3446101         250.9826393

 **********************************************************************

            Population analysis using the SCF Density.

 **********************************************************************

 Orbital symmetries:
 Alpha Orbitals:
       Occupied  (A1) (A1) (B2) (A1) (B1)
       Virtual   (A1) (B2) (B1) (A1) (B2) (A1) (A1) (A2) (B1) (B2)
                 (A1) (B2) (A1) (B1) (A1) (B2) (A1) (A2) (A1) (B2)
                 (B1) (B2) (A1) (A2) (B1) (A1) (B2) (A1) (A1) (B2)
                 (B1) (B1) (A1) (B2) (A2) (A1) (B2) (B2) (A2) (B1)
                 (A1) (A2) (A1) (B1) (B2) (A1) (A1) (B2) (B2) (B1)
                 (B1) (A2) (A1) (A1) (B2) (B1) (A1) (A2) (A1) (B2)
                 (B2) (A1)
 Beta  Orbitals:
       Occupied  (A1) (A1) (B2) (A1)
       Virtual   (B1) (A1) (B2) (A1) (B1) (B2) (A1) (A2) (A1) (B1)
                 (A1) (B2) (B2) (A1) (B1) (A1) (B2) (A1) (A2) (B1)
                 (B2) (A1) (B2) (A1) (B1) (A2) (A1) (B2) (A1) (A1)
                 (B2) (B1) (B1) (A1) (B2) (A2) (A1) (B2) (B2) (A2)
                 (B1) (A1) (A2) (A1) (B1) (B2) (A1) (B2) (A1) (B2)
                 (B1) (B1) (A2) (A1) (A1) (B2) (B1) (A1) (A2) (A1)
                 (B2) (B2) (A1)
 The electronic state is 2-B1.
 Alpha  occ. eigenvalues --  -14.77876  -0.96388  -0.55025  -0.41137  -0.39021
 Alpha virt. eigenvalues --    0.03008   0.06574   0.08953   0.09690   0.17557
 Alpha virt. eigenvalues --    0.19118   0.34077   0.36354   0.37445   0.40026
 Alpha virt. eigenvalues --    0.40875   0.57450   0.59042   0.62446   0.67061
 Alpha virt. eigenvalues --    0.77733   0.86436   0.97538   1.02623   1.02693
 Alpha virt. eigenvalues --    1.04178   1.30433   1.35504   1.41580   1.41943
 Alpha virt. eigenvalues --    1.56872   1.66475   1.67101   2.60442   2.81338
 Alpha virt. eigenvalues --    2.95404   2.96752   3.07794   3.23161   3.27232
 Alpha virt. eigenvalues --    3.30508   3.36477   3.46540   3.52554   3.58860
 Alpha virt. eigenvalues --    3.71121   3.82822   3.83815   3.85035   3.88468
 Alpha virt. eigenvalues --    3.97487   4.12262   4.15964   4.27015   4.50202
 Alpha virt. eigenvalues --    4.65343   4.68797   4.76245   5.16751   5.39576
 Alpha virt. eigenvalues --    5.41359   5.48854   5.58272   5.80588   5.87814
 Alpha virt. eigenvalues --    6.78971  11.49707
  Beta  occ. eigenvalues --  -14.76751  -0.90048  -0.53202  -0.37761
  Beta virt. eigenvalues --   -0.07140   0.02485   0.06548   0.09535   0.10913
  Beta virt. eigenvalues --    0.18003   0.19775   0.33507   0.33527   0.34799
  Beta virt. eigenvalues --    0.34896   0.39919   0.58330   0.60426   0.64055
  Beta virt. eigenvalues --    0.66441   0.74822   0.85950   0.95930   1.00205
  Beta virt. eigenvalues --    1.02033   1.02097   1.31313   1.37733   1.43356
  Beta virt. eigenvalues --    1.43439   1.57609   1.66162   1.69383   2.59472
  Beta virt. eigenvalues --    2.80413   2.97930   3.03882   3.08963   3.24162
  Beta virt. eigenvalues --    3.28582   3.31262   3.38745   3.47441   3.54707
  Beta virt. eigenvalues --    3.63724   3.72582   3.83394   3.84762   3.85363
  Beta virt. eigenvalues --    3.89973   4.01057   4.17661   4.19807   4.28334
  Beta virt. eigenvalues --    4.53132   4.74910   4.77373   4.78418   5.25390
  Beta virt. eigenvalues --    5.41203   5.46184   5.51771   5.63683   5.82445
  Beta virt. eigenvalues --    5.88260   6.89324  11.52830
          Condensed to atoms (all electrons):
               1          2          3
     1  N    6.924833   0.283068   0.283068
     2  H    0.283068   0.499381  -0.027933
     3  H    0.283068  -0.027933   0.499381
          Atomic-Atomic Spin Densities.
               1          2          3
     1  N    1.035582   0.009412   0.009412
     2  H    0.009412  -0.039716   0.003100
     3  H    0.009412   0.003100  -0.039716
 Mulliken charges and spin densities:
               1          2
     1  N   -0.490969   1.054407
     2  H    0.245484  -0.027204
     3  H    0.245484  -0.027204
 Sum of Mulliken charges =   0.00000   1.00000
 Mulliken charges and spin densities with hydrogens summed into heavy atoms:
               1          2
     1  N    0.000000   1.000000
 Electronic spatial extent (au):  <R**2>=             22.2058
 Charge=              0.0000 electrons
 Dipole moment (field-independent basis, Debye):
    X=             -0.0000    Y=             -0.0000    Z=             -1.8161  Tot=              1.8161
 Quadrupole moment (field-independent basis, Debye-Ang):
   XX=             -7.3155   YY=             -5.5903   ZZ=             -7.7376
   XY=              0.0000   XZ=              0.0000   YZ=             -0.0000
 Traceless Quadrupole moment (field-independent basis, Debye-Ang):
   XX=             -0.4343   YY=              1.2908   ZZ=             -0.8565
   XY=              0.0000   XZ=              0.0000   YZ=             -0.0000
 Octapole moment (field-independent basis, Debye-Ang**2):
  XXX=              0.0000  YYY=             -0.0000  ZZZ=             -1.7256  XYY=             -0.0000
  XXY=             -0.0000  XXZ=             -0.4205  XZZ=              0.0000  YZZ=              0.0000
  YYZ=             -1.3831  XYZ=             -0.0000
 Hexadecapole moment (field-independent basis, Debye-Ang**3):
 XXXX=             -7.2883 YYYY=             -9.6845 ZZZZ=            -11.7751 XXXY=             -0.0000
 XXXZ=             -0.0000 YYYX=             -0.0000 YYYZ=             -0.0000 ZZZX=             -0.0000
 ZZZY=              0.0000 XXYY=             -3.1196 XXZZ=             -3.2156 YYZZ=             -3.2681
 XXYZ=             -0.0000 YYXZ=              0.0000 ZZXY=             -0.0000
 N-N= 7.560158446554D+00 E-N=-1.457652463215D+02  KE= 5.557643329677D+01
 Symmetry A1   KE= 5.114706620141D+01
 Symmetry A2   KE= 1.424403959756D-32
 Symmetry B1   KE= 1.718339093130D+00
 Symmetry B2   KE= 2.711028002230D+00
 Symmetry A1   SP=-2.952606324819D-15
 Symmetry A2   SP= 6.486338060630D-35
 Symmetry B1   SP= 1.000000000000D+00
 Symmetry B2   SP= 3.123253297543D-16
                          Isotropic Fermi Contact Couplings
        Atom                 a.u.       MegaHertz       Gauss      10(-4) cm-1
     1  N(14)              0.21323      68.89459      24.58330      22.98076
     2  H(1)              -0.01649     -73.69738     -26.29706     -24.58280
     3  H(1)              -0.01649     -73.69738     -26.29706     -24.58280
 --------------------------------------------------------
       Center         ----  Spin Dipole Couplings  ----
                      3XX-RR        3YY-RR        3ZZ-RR
 --------------------------------------------------------
     1   Atom        2.140668     -1.068006     -1.072662
     2   Atom       -0.017589      0.040936     -0.023348
     3   Atom       -0.017589      0.040936     -0.023348
 --------------------------------------------------------
                        XY            XZ            YZ
 --------------------------------------------------------
     1   Atom       -0.000000     -0.000000      0.000000
     2   Atom       -0.000000      0.000000     -0.108309
     3   Atom       -0.000000     -0.000000      0.108309
 --------------------------------------------------------


 ---------------------------------------------------------------------------------
              Anisotropic Spin Dipole Couplings in Principal Axis System
 ---------------------------------------------------------------------------------

       Atom             a.u.   MegaHertz   Gauss  10(-4) cm-1        Axes

              Baa    -1.0727   -41.370   -14.762   -13.800  0.0000  0.0000  1.0000
     1 N(14)  Bbb    -1.0680   -41.191   -14.698   -13.740 -0.0000  1.0000 -0.0000
              Bcc     2.1407    82.561    29.460    27.539  1.0000 -0.0000  0.0000
 
              Baa    -0.1042   -55.587   -19.835   -18.542 -0.0000  0.5981  0.8014
     2 H(1)   Bbb    -0.0176    -9.385    -3.349    -3.130  1.0000  0.0000  0.0000
              Bcc     0.1218    64.972    23.184    21.672 -0.0000  0.8014 -0.5981
 
              Baa    -0.1042   -55.587   -19.835   -18.542  0.0000 -0.5981  0.8014
     3 H(1)   Bbb    -0.0176    -9.385    -3.349    -3.130  1.0000  0.0000  0.0000
              Bcc     0.1218    64.972    23.184    21.672 -0.0000  0.8014  0.5981
 

 ---------------------------------------------------------------------------------

 Unable to Open any file for archive entry.
 1\1\GINC-A42\FOpt\UM062X\Jun-CC-pVTZ\H2N1(2)\ROOT\15-Jul-2021\0\\# opt
  freq jun-cc-pvtz M062X\\NH2-M062X-jun-cc-pVTZ\\0,2\N,0.,0.,0.14361469
 42\H,0.,-0.8045485785,-0.4906628471\H,0.,0.8045485785,-0.4906628471\\V
 ersion=ES64L-G16RevC.01\State=2-B1\HF=-55.8717845\S2=0.754008\S2-1=0.\
 S2A=0.750012\RMSD=1.868e-09\RMSF=2.607e-05\Dipole=0.,0.,-0.714521\Quad
 rupole=-0.3229141,0.9596801,-0.636766,0.,0.,0.\PG=C02V [C2(N1),SGV(H2)
 ]\\@
 The archive entry for this job was punched.


     ON THE SURVIVAL OF THE FITTEST -
 "STRONG REPRESENTATIVES FROM EACH PAST ERA THRIVE TODAY,
 SUCH AS PROGRAMMING IN THE THIRTY YEAR OLD LANGUAGE KNOWN
 AS FORTRAN, AND EVEN IN THE ANCIENT SCRIPT KNOWN AS DIRECT
 MACHINE CODE. SOME PEOPLE MIGHT LOOK ON SUCH RELICS AS LIVING
 FOSSILS; OTHERS WOULD POINT OUT THAT EVEN A VERY OLD SPECIES
 MIGHT STILL BE FILLING A PARTICULAR ECOLOGICAL NICHE."
     -- ALAN KAY, SCI.AM. SEPTEMBER 1984
 Job cpu time:       0 days  0 hours  5 minutes 30.9 seconds.
 Elapsed time:       0 days  0 hours  0 minutes 16.6 seconds.
 File lengths (MBytes):  RWF=     10 Int=      0 D2E=      0 Chk=      2 Scr=      1
 Normal termination of Gaussian 16 at Thu Jul 15 11:38:09 2021.
 Link1:  Proceeding to internal job step number  2.
 ----------------------------------------------------------------------
 #N Geom=AllCheck Guess=TCheck SCRF=Check GenChk UM062X/Jun-CC-pVTZ Fre
 q
 ----------------------------------------------------------------------
 1/10=4,29=7,30=1,38=1,40=1/1,3;
 2/12=2,40=1/2;
 3/5=16,6=1,7=60,11=2,14=-4,25=1,30=1,70=2,71=2,74=-55,116=2,140=1/1,2,3;
 4/5=101/1;
 5/5=2,38=6,98=1/2;
 8/6=4,10=90,11=11/1;
 11/6=1,8=1,9=11,15=111,16=1/1,2,10;
 10/6=1/2;
 6/7=2,8=2,9=2,10=2,28=1/1;
 7/8=1,10=1,25=1/1,2,3,16;
 1/10=4,30=1/3;
 99//99;
 Structure from the checkpoint file:  "NH2-M062X-jun-cc-pVTZ.chk"
 ---------------------
 NH2-M062X-jun-cc-pVTZ
 ---------------------
 Charge =  0 Multiplicity = 2
 Redundant internal coordinates found in file.  (old form).
 N,0,0.,0.,0.1436146942
 H,0,0.,-0.8045485785,-0.4906628471
 H,0,0.,0.8045485785,-0.4906628471
 Recover connectivity data from disk.

 GradGradGradGradGradGradGradGradGradGradGradGradGradGradGradGradGradGrad
 Berny optimization.
 Initialization pass.
                           ----------------------------
                           !    Initial Parameters    !
                           ! (Angstroms and Degrees)  !
 --------------------------                            --------------------------
 ! Name  Definition              Value          Derivative Info.                !
 --------------------------------------------------------------------------------
 ! R1    R(1,2)                  1.0245         calculate D2E/DX2 analytically  !
 ! R2    R(1,3)                  1.0245         calculate D2E/DX2 analytically  !
 ! A1    A(2,1,3)              103.498          calculate D2E/DX2 analytically  !
 --------------------------------------------------------------------------------
 Trust Radius=3.00D-01 FncErr=1.00D-07 GrdErr=1.00D-07 EigMax=2.50D+02 EigMin=1.00D-04
 Number of steps in this run=      2 maximum allowed number of steps=      2.
 GradGradGradGradGradGradGradGradGradGradGradGradGradGradGradGradGradGrad

                          Input orientation:                          
 ---------------------------------------------------------------------
 Center     Atomic      Atomic             Coordinates (Angstroms)
 Number     Number       Type             X           Y           Z
 ---------------------------------------------------------------------
      1          7           0       -0.000000   -0.000000    0.143615
      2          1           0       -0.000000   -0.804549   -0.490663
      3          1           0        0.000000    0.804549   -0.490663
 ---------------------------------------------------------------------
                    Distance matrix (angstroms):
                    1          2          3
     1  N    0.000000
     2  H    1.024503   0.000000
     3  H    1.024503   1.609097   0.000000
 Stoichiometry    H2N(2)
 Framework group  C2V[C2(N),SGV(H2)]
 Deg. of freedom     2
 Full point group                 C2V     NOp   4
 Largest Abelian subgroup         C2V     NOp   4
 Largest concise Abelian subgroup C2      NOp   2
                         Standard orientation:                         
 ---------------------------------------------------------------------
 Center     Atomic      Atomic             Coordinates (Angstroms)
 Number     Number       Type             X           Y           Z
 ---------------------------------------------------------------------
      1          7           0        0.000000    0.000000    0.140951
      2          1           0       -0.000000    0.804549   -0.493327
      3          1           0       -0.000000   -0.804549   -0.493327
 ---------------------------------------------------------------------
 Rotational constants (GHZ):         712.9317063         387.3446101         250.9826393
 Standard basis: Jun-CC-pVTZ (5D, 7F)
 There are    32 symmetry adapted cartesian basis functions of A1  symmetry.
 There are     8 symmetry adapted cartesian basis functions of A2  symmetry.
 There are    14 symmetry adapted cartesian basis functions of B1  symmetry.
 There are    21 symmetry adapted cartesian basis functions of B2  symmetry.
 There are    27 symmetry adapted basis functions of A1  symmetry.
 There are     8 symmetry adapted basis functions of A2  symmetry.
 There are    13 symmetry adapted basis functions of B1  symmetry.
 There are    19 symmetry adapted basis functions of B2  symmetry.
    67 basis functions,    96 primitive gaussians,    75 cartesian basis functions
     5 alpha electrons        4 beta electrons
       nuclear repulsion energy         7.5601584466 Hartrees.
 NAtoms=    3 NActive=    3 NUniq=    2 SFac= 2.25D+00 NAtFMM=   60 NAOKFM=F Big=F
 Integral buffers will be    131072 words long.
 Raffenetti 2 integral format.
 Two-electron integral symmetry is turned on.
 One-electron integrals computed using PRISM.
 PrsmSu:  requested number of processors reduced to:  10 ShMem   1 Linda.
 NBasis=    67 RedAO= T EigKep=  1.34D-03  NBF=    27     8    13    19
 NBsUse=    67 1.00D-06 EigRej= -1.00D+00 NBFU=    27     8    13    19
 Initial guess from the checkpoint file:  "NH2-M062X-jun-cc-pVTZ.chk"
 B after Tr=     0.000000   -0.000000    0.000000
         Rot=    1.000000    0.000000    0.000000    0.000000 Ang=   0.00 deg.
 Initial guess orbital symmetries:
 Alpha Orbitals:
       Occupied  (A1) (A1) (B2) (A1) (B1)
       Virtual   (A1) (B2) (B1) (A1) (B2) (A1) (A1) (A2) (B1) (B2)
                 (A1) (B2) (A1) (B1) (A1) (B2) (A1) (A2) (A1) (B2)
                 (B1) (B2) (A1) (A2) (B1) (A1) (B2) (A1) (A1) (B2)
                 (B1) (B1) (A1) (B2) (A2) (A1) (B2) (B2) (A2) (B1)
                 (A1) (A2) (A1) (B1) (B2) (A1) (A1) (B2) (B2) (B1)
                 (B1) (A2) (A1) (A1) (B2) (B1) (A1) (A2) (A1) (B2)
                 (B2) (A1)
 Beta  Orbitals:
       Occupied  (A1) (A1) (B2) (A1)
       Virtual   (B1) (A1) (B2) (A1) (B1) (B2) (A1) (A2) (A1) (B1)
                 (A1) (B2) (B2) (A1) (B1) (A1) (B2) (A1) (A2) (B1)
                 (B2) (A1) (B2) (A1) (B1) (A2) (A1) (B2) (A1) (A1)
                 (B2) (B1) (B1) (A1) (B2) (A2) (A1) (B2) (B2) (A2)
                 (B1) (A1) (A2) (A1) (B1) (B2) (A1) (B2) (A1) (B2)
                 (B1) (B1) (A2) (A1) (A1) (B2) (B1) (A1) (A2) (A1)
                 (B2) (B2) (A1)
 Initial guess <Sx>= 0.0000 <Sy>= 0.0000 <Sz>= 0.5000 <S**2>= 0.7540 S= 0.5020
 Keep R1 and R2 ints in memory in symmetry-blocked form, NReq=24164103.
 Requested convergence on RMS density matrix=1.00D-08 within 128 cycles.
 Requested convergence on MAX density matrix=1.00D-06.
 Requested convergence on             energy=1.00D-06.
 No special actions if energy rises.
 SCF Done:  E(UM062X) =  -55.8717845443     A.U. after    1 cycles
            NFock=  1  Conv=0.26D-09     -V/T= 2.0053
 <Sx>= 0.0000 <Sy>= 0.0000 <Sz>= 0.5000 <S**2>= 0.7540 S= 0.5020
 <L.S>=  0.00000000000    
 Annihilation of the first spin contaminant:
 S**2 before annihilation     0.7540,   after     0.7500
 DoSCS=F DFT=T ScalE2(SS,OS)=  1.000000  1.000000
 Range of M.O.s used for correlation:     1    67
 NBasis=    67 NAE=     5 NBE=     4 NFC=     0 NFV=     0
 NROrb=     67 NOA=     5 NOB=     4 NVA=    62 NVB=    63
 PrsmSu:  requested number of processors reduced to:  10 ShMem   1 Linda.
 PrsmSu:  requested number of processors reduced to:  21 ShMem   1 Linda.
 Symmetrizing basis deriv contribution to polar:
 IMax=3 JMax=2 DiffMx= 0.00D+00
 G2DrvN: will do     4 centers at a time, making    1 passes.
 Estimated number of processors is:   21
 Calling FoFCou, ICntrl=  3107 FMM=F I1Cent=   0 AccDes= 0.00D+00.
 CoulSu:  requested number of processors reduced to:  21 ShMem   1 Linda.
 End of G2Drv F.D. properties file   721 does not exist.
 End of G2Drv F.D. properties file   722 does not exist.
 End of G2Drv F.D. properties file   788 does not exist.
          IDoAtm=111
          Differentiating once with respect to electric field.
                with respect to dipole field.
          Differentiating once with respect to nuclear coordinates.
 Keep R1 and R2 ints in memory in symmetry-blocked form, NReq=24082952.
          There are     9 degrees of freedom in the 1st order CPHF.  IDoFFX=4 NUNeed=     9.
      9 vectors produced by pass  0 Test12= 6.24D-15 1.11D-08 XBig12= 9.21D+00 1.28D+00.
 AX will form     9 AO Fock derivatives at one time.
      9 vectors produced by pass  1 Test12= 6.24D-15 1.11D-08 XBig12= 9.15D-01 3.51D-01.
      9 vectors produced by pass  2 Test12= 6.24D-15 1.11D-08 XBig12= 2.41D-02 6.24D-02.
      9 vectors produced by pass  3 Test12= 6.24D-15 1.11D-08 XBig12= 2.42D-04 5.35D-03.
      9 vectors produced by pass  4 Test12= 6.24D-15 1.11D-08 XBig12= 5.21D-06 1.02D-03.
      9 vectors produced by pass  5 Test12= 6.24D-15 1.11D-08 XBig12= 4.11D-08 6.08D-05.
      7 vectors produced by pass  6 Test12= 6.24D-15 1.11D-08 XBig12= 5.25D-10 8.01D-06.
      4 vectors produced by pass  7 Test12= 6.24D-15 1.11D-08 XBig12= 3.37D-12 4.34D-07.
      2 vectors produced by pass  8 Test12= 6.24D-15 1.11D-08 XBig12= 2.48D-14 5.24D-08.
 InvSVY:  IOpt=1 It=  1 EMax= 8.88D-16
 Solved reduced A of dimension    67 with     9 vectors.
 Isotropic polarizability for W=    0.000000       11.70 Bohr**3.
 End of Minotr F.D. properties file   721 does not exist.
 End of Minotr F.D. properties file   722 does not exist.
 End of Minotr F.D. properties file   788 does not exist.

 **********************************************************************

            Population analysis using the SCF Density.

 **********************************************************************

 Orbital symmetries:
 Alpha Orbitals:
       Occupied  (A1) (A1) (B2) (A1) (B1)
       Virtual   (A1) (B2) (B1) (A1) (B2) (A1) (A1) (A2) (B1) (B2)
                 (A1) (B2) (A1) (B1) (A1) (B2) (A1) (A2) (A1) (B2)
                 (B1) (B2) (A1) (A2) (B1) (A1) (B2) (A1) (A1) (B2)
                 (B1) (B1) (A1) (B2) (A2) (A1) (B2) (B2) (A2) (B1)
                 (A1) (A2) (A1) (B1) (B2) (A1) (A1) (B2) (B2) (B1)
                 (B1) (A2) (A1) (A1) (B2) (B1) (A1) (A2) (A1) (B2)
                 (B2) (A1)
 Beta  Orbitals:
       Occupied  (A1) (A1) (B2) (A1)
       Virtual   (B1) (A1) (B2) (A1) (B1) (B2) (A1) (A2) (A1) (B1)
                 (A1) (B2) (B2) (A1) (B1) (A1) (B2) (A1) (A2) (B1)
                 (B2) (A1) (B2) (A1) (B1) (A2) (A1) (B2) (A1) (A1)
                 (B2) (B1) (B1) (A1) (B2) (A2) (A1) (B2) (B2) (A2)
                 (B1) (A1) (A2) (A1) (B1) (B2) (A1) (B2) (A1) (B2)
                 (B1) (B1) (A2) (A1) (A1) (B2) (B1) (A1) (A2) (A1)
                 (B2) (B2) (A1)
 The electronic state is 2-B1.
 Alpha  occ. eigenvalues --  -14.77876  -0.96388  -0.55025  -0.41137  -0.39021
 Alpha virt. eigenvalues --    0.03008   0.06574   0.08953   0.09690   0.17557
 Alpha virt. eigenvalues --    0.19118   0.34077   0.36354   0.37445   0.40026
 Alpha virt. eigenvalues --    0.40875   0.57450   0.59042   0.62446   0.67061
 Alpha virt. eigenvalues --    0.77733   0.86436   0.97538   1.02623   1.02693
 Alpha virt. eigenvalues --    1.04178   1.30433   1.35504   1.41580   1.41943
 Alpha virt. eigenvalues --    1.56872   1.66475   1.67101   2.60442   2.81338
 Alpha virt. eigenvalues --    2.95404   2.96752   3.07794   3.23161   3.27232
 Alpha virt. eigenvalues --    3.30508   3.36477   3.46540   3.52554   3.58860
 Alpha virt. eigenvalues --    3.71121   3.82822   3.83815   3.85035   3.88468
 Alpha virt. eigenvalues --    3.97487   4.12262   4.15964   4.27015   4.50202
 Alpha virt. eigenvalues --    4.65343   4.68797   4.76245   5.16751   5.39576
 Alpha virt. eigenvalues --    5.41359   5.48854   5.58272   5.80588   5.87814
 Alpha virt. eigenvalues --    6.78971  11.49707
  Beta  occ. eigenvalues --  -14.76751  -0.90048  -0.53202  -0.37761
  Beta virt. eigenvalues --   -0.07140   0.02485   0.06548   0.09535   0.10913
  Beta virt. eigenvalues --    0.18003   0.19775   0.33507   0.33527   0.34799
  Beta virt. eigenvalues --    0.34896   0.39919   0.58330   0.60426   0.64055
  Beta virt. eigenvalues --    0.66441   0.74822   0.85950   0.95930   1.00205
  Beta virt. eigenvalues --    1.02033   1.02097   1.31313   1.37733   1.43356
  Beta virt. eigenvalues --    1.43439   1.57609   1.66162   1.69383   2.59472
  Beta virt. eigenvalues --    2.80413   2.97930   3.03882   3.08963   3.24162
  Beta virt. eigenvalues --    3.28582   3.31262   3.38745   3.47441   3.54707
  Beta virt. eigenvalues --    3.63724   3.72582   3.83394   3.84762   3.85363
  Beta virt. eigenvalues --    3.89973   4.01057   4.17661   4.19807   4.28334
  Beta virt. eigenvalues --    4.53132   4.74910   4.77373   4.78418   5.25390
  Beta virt. eigenvalues --    5.41203   5.46184   5.51771   5.63683   5.82445
  Beta virt. eigenvalues --    5.88260   6.89324  11.52830
          Condensed to atoms (all electrons):
               1          2          3
     1  N    6.924833   0.283068   0.283068
     2  H    0.283068   0.499381  -0.027933
     3  H    0.283068  -0.027933   0.499381
          Atomic-Atomic Spin Densities.
               1          2          3
     1  N    1.035583   0.009412   0.009412
     2  H    0.009412  -0.039716   0.003100
     3  H    0.009412   0.003100  -0.039716
 Mulliken charges and spin densities:
               1          2
     1  N   -0.490969   1.054407
     2  H    0.245484  -0.027204
     3  H    0.245484  -0.027204
 Sum of Mulliken charges =   0.00000   1.00000
 Mulliken charges and spin densities with hydrogens summed into heavy atoms:
               1          2
     1  N    0.000000   1.000000
 APT charges:
               1
     1  N   -0.324779
     2  H    0.162390
     3  H    0.162390
 Sum of APT charges =   0.00000
 APT charges with hydrogens summed into heavy atoms:
               1
     1  N    0.000000
 Electronic spatial extent (au):  <R**2>=             22.2058
 Charge=             -0.0000 electrons
 Dipole moment (field-independent basis, Debye):
    X=             -0.0000    Y=             -0.0000    Z=             -1.8161  Tot=              1.8161
 Quadrupole moment (field-independent basis, Debye-Ang):
   XX=             -7.3155   YY=             -5.5903   ZZ=             -7.7376
   XY=              0.0000   XZ=              0.0000   YZ=             -0.0000
 Traceless Quadrupole moment (field-independent basis, Debye-Ang):
   XX=             -0.4343   YY=              1.2908   ZZ=             -0.8565
   XY=              0.0000   XZ=              0.0000   YZ=             -0.0000
 Octapole moment (field-independent basis, Debye-Ang**2):
  XXX=              0.0000  YYY=             -0.0000  ZZZ=             -1.7256  XYY=             -0.0000
  XXY=              0.0000  XXZ=             -0.4205  XZZ=              0.0000  YZZ=              0.0000
  YYZ=             -1.3831  XYZ=             -0.0000
 Hexadecapole moment (field-independent basis, Debye-Ang**3):
 XXXX=             -7.2883 YYYY=             -9.6845 ZZZZ=            -11.7751 XXXY=             -0.0000
 XXXZ=             -0.0000 YYYX=             -0.0000 YYYZ=              0.0000 ZZZX=             -0.0000
 ZZZY=              0.0000 XXYY=             -3.1196 XXZZ=             -3.2156 YYZZ=             -3.2681
 XXYZ=             -0.0000 YYXZ=              0.0000 ZZXY=             -0.0000
 N-N= 7.560158446554D+00 E-N=-1.457652462721D+02  KE= 5.557643327263D+01
 Symmetry A1   KE= 5.114706616589D+01
 Symmetry A2   KE= 5.820328181174D-33
 Symmetry B1   KE= 1.718339106267D+00
 Symmetry B2   KE= 2.711028000469D+00
 Symmetry A1   SP= 1.662710614268D-16
 Symmetry A2   SP= 1.101918863530D-33
 Symmetry B1   SP= 1.000000000000D+00
 Symmetry B2   SP=-3.572498078616D-16
  Exact polarizability:      10.439       0.000      12.377       0.000       0.000      12.297
 Approx polarizability:       9.707       0.000      12.850       0.000       0.000      12.279
                          Isotropic Fermi Contact Couplings
        Atom                 a.u.       MegaHertz       Gauss      10(-4) cm-1
     1  N(14)              0.21323      68.89459      24.58330      22.98076
     2  H(1)              -0.01649     -73.69742     -26.29707     -24.58281
     3  H(1)              -0.01649     -73.69742     -26.29707     -24.58281
 --------------------------------------------------------
       Center         ----  Spin Dipole Couplings  ----
                      3XX-RR        3YY-RR        3ZZ-RR
 --------------------------------------------------------
     1   Atom        2.140668     -1.068006     -1.072662
     2   Atom       -0.017589      0.040936     -0.023348
     3   Atom       -0.017589      0.040936     -0.023348
 --------------------------------------------------------
                        XY            XZ            YZ
 --------------------------------------------------------
     1   Atom       -0.000000     -0.000000     -0.000000
     2   Atom       -0.000000      0.000000     -0.108309
     3   Atom       -0.000000     -0.000000      0.108309
 --------------------------------------------------------


 ---------------------------------------------------------------------------------
              Anisotropic Spin Dipole Couplings in Principal Axis System
 ---------------------------------------------------------------------------------

       Atom             a.u.   MegaHertz   Gauss  10(-4) cm-1        Axes

              Baa    -1.0727   -41.370   -14.762   -13.800  0.0000  0.0000  1.0000
     1 N(14)  Bbb    -1.0680   -41.191   -14.698   -13.740  0.0000  1.0000 -0.0000
              Bcc     2.1407    82.561    29.460    27.539  1.0000  0.0000 -0.0000
 
              Baa    -0.1042   -55.587   -19.835   -18.542 -0.0000  0.5981  0.8014
     2 H(1)   Bbb    -0.0176    -9.385    -3.349    -3.130  1.0000  0.0000  0.0000
              Bcc     0.1218    64.972    23.184    21.672 -0.0000  0.8014 -0.5981
 
              Baa    -0.1042   -55.587   -19.835   -18.542  0.0000 -0.5981  0.8014
     3 H(1)   Bbb    -0.0176    -9.385    -3.349    -3.130  1.0000  0.0000  0.0000
              Bcc     0.1218    64.972    23.184    21.672 -0.0000  0.8014  0.5981
 

 ---------------------------------------------------------------------------------

 PrsmSu:  requested number of processors reduced to:  10 ShMem   1 Linda.
 PrsmSu:  requested number of processors reduced to:  10 ShMem   1 Linda.
 Calling FoFJK, ICntrl=    100127 FMM=F ISym2X=1 I1Cent= 0 IOpClX= 1 NMat=1 NMatS=1 NMatT=0.
 CoulSu:  requested number of processors reduced to:  10 ShMem   1 Linda.
 Full mass-weighted force constant matrix:
 Low frequencies --- -197.5015  -71.2510    0.0014    0.0015    0.0021  109.4408
 Low frequencies --- 1530.8034 3403.9605 3495.8986
 Diagonal vibrational polarizability:
        0.0000000       0.0009653       0.3743049
 Harmonic frequencies (cm**-1), IR intensities (KM/Mole), Raman scattering
 activities (A**4/AMU), depolarization ratios for plane and unpolarized
 incident light, reduced masses (AMU), force constants (mDyne/A),
 and normal coordinates:
                      1                      2                      3
                     A1                     A1                     B2
 Frequencies --   1530.8034              3403.9605              3495.8984
 Red. masses --      1.0914                 1.0500                 1.0903
 Frc consts  --      1.5069                 7.1682                 7.8510
 IR Inten    --     31.5912                 4.9560                 0.4384
  Atom  AN      X      Y      Z        X      Y      Z        X      Y      Z
     1   7    -0.00   0.00  -0.08     0.00  -0.00   0.06    -0.00  -0.08  -0.00
     2   1     0.00   0.43   0.56     0.00   0.58  -0.40    -0.00   0.55  -0.44
     3   1     0.00  -0.43   0.56    -0.00  -0.58  -0.40     0.00   0.55   0.44

 -------------------
 - Thermochemistry -
 -------------------
 Temperature   298.150 Kelvin.  Pressure   1.00000 Atm.
 Atom     1 has atomic number  7 and mass  14.00307
 Atom     2 has atomic number  1 and mass   1.00783
 Atom     3 has atomic number  1 and mass   1.00783
 Molecular mass:    16.01872 amu.
 Principal axes and moments of inertia in atomic units:
                           1         2         3
     Eigenvalues --     2.53144   4.65927   7.19070
           X            0.00000   0.00000   1.00000
           Y            1.00000   0.00000  -0.00000
           Z           -0.00000   1.00000   0.00000
 This molecule is an asymmetric top.
 Rotational symmetry number  2.
 Rotational temperatures (Kelvin)     34.21533    18.58961    12.04527
 Rotational constants (GHZ):         712.93171   387.34461   250.98264
 Zero-point vibrational energy      50426.6 (Joules/Mol)
                                   12.05224 (Kcal/Mol)
 Vibrational temperatures:   2202.48  4897.54  5029.82
          (Kelvin)
 
 Zero-point correction=                           0.019206 (Hartree/Particle)
 Thermal correction to Energy=                    0.022043
 Thermal correction to Enthalpy=                  0.022988
 Thermal correction to Gibbs Free Energy=         0.000901
 Sum of electronic and zero-point Energies=            -55.852578
 Sum of electronic and thermal Energies=               -55.849741
 Sum of electronic and thermal Enthalpies=             -55.848797
 Sum of electronic and thermal Free Energies=          -55.870883
 
                     E (Thermal)             CV                S
                      KCal/Mol        Cal/Mol-Kelvin    Cal/Mol-Kelvin
 Total                   13.832              6.029             46.484
 Electronic               0.000              0.000              1.377
 Translational            0.889              2.981             34.259
 Rotational               0.889              2.981             10.837
 Vibrational             12.055              0.067              0.010
                       Q            Log10(Q)             Ln(Q)
 Total Bot       0.384935D+00         -0.414613         -0.954682
 Total V=0       0.262868D+09          8.419738         19.387164
 Vib (Bot)       0.146527D-08         -8.834082        -20.341226
 Vib (V=0)       0.100062D+01          0.000269          0.000619
 Electronic      0.200000D+01          0.301030          0.693147
 Translational   0.251997D+07          6.401396         14.739758
 Rotational      0.521247D+02          1.717043          3.953639
 ***** Axes restored to original set *****
 -------------------------------------------------------------------
 Center     Atomic                   Forces (Hartrees/Bohr)
 Number     Number              X              Y              Z
 -------------------------------------------------------------------
      1        7           0.000000000   -0.000000000    0.000062813
      2        1           0.000000000    0.000009934   -0.000031406
      3        1          -0.000000000   -0.000009934   -0.000031406
 -------------------------------------------------------------------
 Cartesian Forces:  Max     0.000062813 RMS     0.000026067
 FormGI is forming the generalized inverse of G from B-inverse, IUseBI=4.

 GradGradGradGradGradGradGradGradGradGradGradGradGradGradGradGradGradGrad
 Berny optimization.
 Internal  Forces:  Max     0.000059657 RMS     0.000035731
 Search for a local minimum.
 Step number   1 out of a maximum of    2
 All quantities printed in internal units (Hartrees-Bohrs-Radians)
 Second derivative matrix not updated -- analytic derivatives used.
 The second derivative matrix:
                          R1        R2        A1
           R1           0.42429
           R2          -0.00371   0.42429
           A1           0.02886   0.02886   0.15782
 ITU=  0
     Eigenvalues ---    0.15162   0.42678   0.42800
 Angle between quadratic step and forces=   4.37 degrees.
 Linear search not attempted -- first point.
 Iteration  1 RMS(Cart)=  0.00022505 RMS(Int)=  0.00000003
 Iteration  2 RMS(Cart)=  0.00000003 RMS(Int)=  0.00000000
 ClnCor:  largest displacement from symmetrization is 2.48D-16 for atom     3.
 Variable       Old X    -DE/DX   Delta X   Delta X   Delta X     New X
                                 (Linear)    (Quad)   (Total)
    R1        1.93603   0.00001   0.00000   0.00006   0.00006   1.93609
    R2        1.93603   0.00001   0.00000   0.00006   0.00006   1.93609
    A1        1.80638  -0.00006   0.00000  -0.00040  -0.00040   1.80598
         Item               Value     Threshold  Converged?
 Maximum Force            0.000060     0.000450     YES
 RMS     Force            0.000036     0.000300     YES
 Maximum Displacement     0.000224     0.001800     YES
 RMS     Displacement     0.000225     0.001200     YES
 Predicted change in Energy=-1.251591D-08
 Optimization completed.
    -- Stationary point found.
                           ----------------------------
                           !   Optimized Parameters   !
                           ! (Angstroms and Degrees)  !
 --------------------------                            --------------------------
 ! Name  Definition              Value          Derivative Info.                !
 --------------------------------------------------------------------------------
 ! R1    R(1,2)                  1.0245         -DE/DX =    0.0                 !
 ! R2    R(1,3)                  1.0245         -DE/DX =    0.0                 !
 ! A1    A(2,1,3)              103.498          -DE/DX =   -0.0001              !
 --------------------------------------------------------------------------------
 GradGradGradGradGradGradGradGradGradGradGradGradGradGradGradGradGradGrad


 ----------------------------------------------------------------------

 Electric dipole moment (input orientation):
 (Debye = 10**-18 statcoulomb cm , SI units = C m)
                  (au)            (Debye)         (10**-30 SI)
   Tot        0.714521D+00      0.181613D+01      0.605796D+01
   x          0.000000D+00      0.000000D+00      0.000000D+00
   y          0.000000D+00      0.000000D+00      0.000000D+00
   z         -0.714521D+00     -0.181613D+01     -0.605796D+01

 Dipole polarizability, Alpha (input orientation).
 (esu units = cm**3 , SI units = C**2 m**2 J**-1)
 Alpha(0;0):
               (au)            (10**-24 esu)      (10**-40 SI)
   iso        0.117046D+02      0.173444D+01      0.192983D+01
   aniso      0.189919D+01      0.281430D+00      0.313134D+00
   xx         0.104393D+02      0.154695D+01      0.172121D+01
   yx         0.000000D+00      0.000000D+00      0.000000D+00
   yy         0.123772D+02      0.183411D+01      0.204072D+01
   zx         0.000000D+00      0.000000D+00      0.000000D+00
   zy         0.000000D+00      0.000000D+00      0.000000D+00
   zz         0.122973D+02      0.182227D+01      0.202755D+01

 ----------------------------------------------------------------------

 Dipole orientation:
     7          0.00000000         -0.00000000         -0.27139244
     1         -0.00000000          1.52037647          0.92721840
     1          0.00000000         -1.52037647          0.92721840

 Electric dipole moment (dipole orientation):
 (Debye = 10**-18 statcoulomb cm , SI units = C m)
                  (au)            (Debye)         (10**-30 SI)
   Tot        0.714521D+00      0.181613D+01      0.605796D+01
   x          0.000000D+00      0.000000D+00      0.000000D+00
   y          0.000000D+00      0.000000D+00      0.000000D+00
   z          0.714521D+00      0.181613D+01      0.605796D+01

 Dipole polarizability, Alpha (dipole orientation).
 (esu units = cm**3 , SI units = C**2 m**2 J**-1)
 Alpha(0;0):
               (au)            (10**-24 esu)      (10**-40 SI)
   iso        0.117046D+02      0.173444D+01      0.192983D+01
   aniso      0.189919D+01      0.281430D+00      0.313134D+00
   xx         0.104393D+02      0.154695D+01      0.172121D+01
   yx         0.000000D+00      0.000000D+00      0.000000D+00
   yy         0.123772D+02      0.183411D+01      0.204072D+01
   zx         0.000000D+00      0.000000D+00      0.000000D+00
   zy         0.000000D+00      0.000000D+00      0.000000D+00
   zz         0.122973D+02      0.182227D+01      0.202755D+01

 ----------------------------------------------------------------------
 Unable to Open any file for archive entry.
 1\1\GINC-A42\Freq\UM062X\Jun-CC-pVTZ\H2N1(2)\ROOT\15-Jul-2021\0\\#N Ge
 om=AllCheck Guess=TCheck SCRF=Check GenChk UM062X/Jun-CC-pVTZ Freq\\NH
 2-M062X-jun-cc-pVTZ\\0,2\N,0.,0.,0.1436146942\H,0.,-0.8045485785,-0.49
 06628471\H,0.,0.8045485785,-0.4906628471\\Version=ES64L-G16RevC.01\Sta
 te=2-B1\HF=-55.8717845\S2=0.754008\S2-1=0.\S2A=0.750012\RMSD=2.586e-10
 \RMSF=2.607e-05\ZeroPoint=0.0192065\Thermal=0.0220433\ETot=-55.8497412
 \HTot=-55.848797\GTot=-55.8708831\Dipole=0.,0.,-0.714521\DipoleDeriv=-
 0.6037873,0.,0.,0.,-0.2325324,0.,0.,0.,-0.1380178,0.3018937,0.,0.,0.,0
 .1162662,-0.1159456,0.,-0.1433361,0.0690089,0.3018937,0.,0.,0.,0.11626
 62,0.1159456,0.,0.1433361,0.0690089\Polar=10.439321,0.,12.3771915,0.,0
 .,12.2973022\Quadrupole=-0.3229141,0.9596801,-0.6367661,0.,0.,0.\PG=C0
 2V [C2(N1),SGV(H2)]\NImag=0\\-0.00260102,0.,0.52768109,0.,0.,0.3683145
 6,0.00130051,0.,0.,-0.00042185,0.,-0.26384055,-0.15658794,0.,0.2922359
 4,0.,-0.20826948,-0.18415728,0.,0.18242871,0.17413062,0.00130051,0.,0.
 ,-0.00087866,0.,0.,-0.00042185,0.,-0.26384055,0.15658794,0.,-0.0283954
 0,0.02584077,0.,0.29223594,0.,0.20826948,-0.18415728,0.,-0.02584077,0.
 01002666,0.,-0.18242871,0.17413062\\0.,0.,-0.00006281,0.,-0.00000993,0
 .00003141,0.,0.00000993,0.00003141\\\@
 The archive entry for this job was punched.


 I DO NOT DEFINE TIME, SPACE, PLACE, AND MOTION, AS BEING WELL KNOWN TO ALL.
                                            -- NEWTON (1642-1726), PRINCIPIA
 Job cpu time:       0 days  0 hours  2 minutes 21.5 seconds.
 Elapsed time:       0 days  0 hours  0 minutes  7.4 seconds.
 File lengths (MBytes):  RWF=     10 Int=      0 D2E=      0 Chk=      2 Scr=      1
 Normal termination of Gaussian 16 at Thu Jul 15 11:38:17 2021.
