 Entering Gaussian System, Link 0=g16
 Initial command:
 /opt/gaussian/g16/l1.exe "/tmp/Gau-20352.inp" -scrdir="/tmp/"
 Entering Link 1 = /opt/gaussian/g16/l1.exe PID=     20353.
  
 Copyright (c) 1988-2019, Gaussian, Inc.  All Rights Reserved.
  
 This is part of the Gaussian(R) 16 program.  It is based on
 the Gaussian(R) 09 system (copyright 2009, Gaussian, Inc.),
 the Gaussian(R) 03 system (copyright 2003, Gaussian, Inc.),
 the Gaussian(R) 98 system (copyright 1998, Gaussian, Inc.),
 the Gaussian(R) 94 system (copyright 1995, Gaussian, Inc.),
 the Gaussian 92(TM) system (copyright 1992, Gaussian, Inc.),
 the Gaussian 90(TM) system (copyright 1990, Gaussian, Inc.),
 the Gaussian 88(TM) system (copyright 1988, Gaussian, Inc.),
 the Gaussian 86(TM) system (copyright 1986, Carnegie Mellon
 University), and the Gaussian 82(TM) system (copyright 1983,
 Carnegie Mellon University). Gaussian is a federally registered
 trademark of Gaussian, Inc.
  
 This software contains proprietary and confidential information,
 including trade secrets, belonging to Gaussian, Inc.
  
 This software is provided under written license and may be
 used, copied, transmitted, or stored only in accord with that
 written license.
  
 The following legend is applicable only to US Government
 contracts under FAR:
  
                    RESTRICTED RIGHTS LEGEND
  
 Use, reproduction and disclosure by the US Government is
 subject to restrictions as set forth in subparagraphs (a)
 and (c) of the Commercial Computer Software - Restricted
 Rights clause in FAR 52.227-19.
  
 Gaussian, Inc.
 340 Quinnipiac St., Bldg. 40, Wallingford CT 06492
  
  
 ---------------------------------------------------------------
 Warning -- This program may not be used in any manner that
 competes with the business of Gaussian, Inc. or will provide
 assistance to any competitor of Gaussian, Inc.  The licensee
 of this program is prohibited from giving any competitor of
 Gaussian, Inc. access to this program.  By using this program,
 the user acknowledges that Gaussian, Inc. is engaged in the
 business of creating and licensing software in the field of
 computational chemistry and represents and warrants to the
 licensee that it is not a competitor of Gaussian, Inc. and that
 it will not use this program in any manner prohibited above.
 ---------------------------------------------------------------
  

 Cite this work as:
 Gaussian 16, Revision C.01,
 M. J. Frisch, G. W. Trucks, H. B. Schlegel, G. E. Scuseria, 
 M. A. Robb, J. R. Cheeseman, G. Scalmani, V. Barone, 
 G. A. Petersson, H. Nakatsuji, X. Li, M. Caricato, A. V. Marenich, 
 J. Bloino, B. G. Janesko, R. Gomperts, B. Mennucci, H. P. Hratchian, 
 J. V. Ortiz, A. F. Izmaylov, J. L. Sonnenberg, D. Williams-Young, 
 F. Ding, F. Lipparini, F. Egidi, J. Goings, B. Peng, A. Petrone, 
 T. Henderson, D. Ranasinghe, V. G. Zakrzewski, J. Gao, N. Rega, 
 G. Zheng, W. Liang, M. Hada, M. Ehara, K. Toyota, R. Fukuda, 
 J. Hasegawa, M. Ishida, T. Nakajima, Y. Honda, O. Kitao, H. Nakai, 
 T. Vreven, K. Throssell, J. A. Montgomery, Jr., J. E. Peralta, 
 F. Ogliaro, M. J. Bearpark, J. J. Heyd, E. N. Brothers, K. N. Kudin, 
 V. N. Staroverov, T. A. Keith, R. Kobayashi, J. Normand, 
 K. Raghavachari, A. P. Rendell, J. C. Burant, S. S. Iyengar, 
 J. Tomasi, M. Cossi, J. M. Millam, M. Klene, C. Adamo, R. Cammi, 
 J. W. Ochterski, R. L. Martin, K. Morokuma, O. Farkas, 
 J. B. Foresman, and D. J. Fox, Gaussian, Inc., Wallingford CT, 2019.
 
 ******************************************
 Gaussian 16:  ES64L-G16RevC.01  3-Jul-2019
                 9-Jul-2021 
 ******************************************
 %chk=s000002.chk
 -------------------------
 #P freq M062X/jun-cc-pVTZ
 -------------------------
 1/10=4,30=1,38=1/1,3;
 2/12=2,17=6,18=5,40=1/2;
 3/5=16,6=1,7=60,11=2,25=1,30=1,71=2,74=-55,140=1/1,2,3;
 4//1;
 5/5=2,38=5,98=1/2;
 8/6=4,10=90,11=11/1;
 11/6=1,8=1,9=11,15=111,16=1/1,2,10;
 10/6=1/2;
 6/7=2,8=2,9=2,10=2,28=1/1;
 7/8=1,10=1,25=1/1,2,3,16;
 1/10=4,30=1/3;
 99//99;
 Leave Link    1 at Fri Jul  9 10:14:25 2021, MaxMem=           0 cpu:               0.0 elap:               0.0
 (Enter /opt/gaussian/g16/l101.exe)
 ---------------------
 Generated by Multiwfn
 ---------------------
 Symbolic Z-matrix:
 Charge =  0 Multiplicity = 2
 C                     1.87872  -0.17147   0.0953 
 H                     1.93476  -0.59883   1.09636 
 H                     2.02393  -0.98086  -0.62128 
 H                     2.70051   0.533    -0.02469 
 C                     0.53083   0.50463  -0.12662 
 H                     0.40692   1.32396   0.59057 
 H                     0.51716   0.97659  -1.11965 
 C                    -0.60341  -0.44823   0.01539 
 H                    -0.50118  -1.44831  -0.38602 
 N                    -1.89624   0.07499  -0.01873 
 H                    -2.01362   0.93889   0.49128 
 H                    -2.63167  -0.57895   0.20007 
 
 ITRead=  0  0  0  0  0  0  0  0  0  0  0  0
 MicOpt= -1 -1 -1 -1 -1 -1 -1 -1 -1 -1 -1 -1
 NAtoms=     12 NQM=       12 NQMF=       0 NMMI=      0 NMMIF=      0
                NMic=       0 NMicF=      0.
                    Isotopes and Nuclear Properties:
 (Nuclear quadrupole moments (NQMom) in fm**2, nuclear magnetic moments (NMagM)
  in nuclear magnetons)

  Atom         1           2           3           4           5           6           7           8           9          10
 IAtWgt=          12           1           1           1          12           1           1          12           1          14
 AtmWgt=  12.0000000   1.0078250   1.0078250   1.0078250  12.0000000   1.0078250   1.0078250  12.0000000   1.0078250  14.0030740
 NucSpn=           0           1           1           1           0           1           1           0           1           2
 AtZEff=  -0.0000000  -0.0000000  -0.0000000  -0.0000000  -0.0000000  -0.0000000  -0.0000000  -0.0000000  -0.0000000  -0.0000000
 NQMom=    0.0000000   0.0000000   0.0000000   0.0000000   0.0000000   0.0000000   0.0000000   0.0000000   0.0000000   2.0440000
 NMagM=    0.0000000   2.7928460   2.7928460   2.7928460   0.0000000   2.7928460   2.7928460   0.0000000   2.7928460   0.4037610
 AtZNuc=   6.0000000   1.0000000   1.0000000   1.0000000   6.0000000   1.0000000   1.0000000   6.0000000   1.0000000   7.0000000

  Atom        11          12
 IAtWgt=           1           1
 AtmWgt=   1.0078250   1.0078250
 NucSpn=           1           1
 AtZEff=  -0.0000000  -0.0000000
 NQMom=    0.0000000   0.0000000
 NMagM=    2.7928460   2.7928460
 AtZNuc=   1.0000000   1.0000000
 Leave Link  101 at Fri Jul  9 10:14:25 2021, MaxMem=   104857600 cpu:               0.1 elap:               0.2
 (Enter /opt/gaussian/g16/l103.exe)

 GradGradGradGradGradGradGradGradGradGradGradGradGradGradGradGradGradGrad
 Berny optimization.
 Initialization pass.
 Trust Radius=3.00D-01 FncErr=1.00D-07 GrdErr=1.00D-07 EigMax=2.50D+02 EigMin=1.00D-04
 Number of steps in this run=      2 maximum allowed number of steps=      2.
 GradGradGradGradGradGradGradGradGradGradGradGradGradGradGradGradGradGrad

 Leave Link  103 at Fri Jul  9 10:14:26 2021, MaxMem=   104857600 cpu:               0.1 elap:               0.1
 (Enter /opt/gaussian/g16/l202.exe)
                          Input orientation:                          
 ---------------------------------------------------------------------
 Center     Atomic      Atomic             Coordinates (Angstroms)
 Number     Number       Type             X           Y           Z
 ---------------------------------------------------------------------
      1          6           0        1.878721   -0.171473    0.095302
      2          1           0        1.934763   -0.598829    1.096364
      3          1           0        2.023925   -0.980856   -0.621277
      4          1           0        2.700511    0.533002   -0.024688
      5          6           0        0.530832    0.504629   -0.126619
      6          1           0        0.406915    1.323957    0.590572
      7          1           0        0.517157    0.976593   -1.119645
      8          6           0       -0.603408   -0.448232    0.015393
      9          1           0       -0.501183   -1.448307   -0.386017
     10          7           0       -1.896239    0.074992   -0.018731
     11          1           0       -2.013616    0.938893    0.491284
     12          1           0       -2.631669   -0.578945    0.200065
 ---------------------------------------------------------------------
                    Distance matrix (angstroms):
                    1          2          3          4          5
     1  C    0.000000
     2  H    1.089908   0.000000
     3  H    1.090720   1.761870   0.000000
     4  H    1.089046   1.767532   1.762230   0.000000
     5  C    1.524194   2.164331   2.163488   2.172257   0.000000
     6  H    2.155879   2.507439   3.065202   2.502946   1.095909
     7  H    2.155924   3.066310   2.519986   2.482486   1.099562
     8  C    2.498789   2.762877   2.755343   3.446782   1.488157
     9  H    2.743340   2.975382   2.578765   3.782458   2.224028
    10  N    3.784716   4.046486   4.104335   4.619515   2.467165
    11  H    4.066940   4.280235   4.607056   4.759618   2.654167
    12  H    4.529970   4.653606   4.744543   5.451521   3.358909
                    6          7          8          9         10
     6  H    0.000000
     7  H    1.748616   0.000000
     8  C    2.119490   2.138715   0.000000
     9  H    3.076332   2.730452   1.082465   0.000000
    10  N    2.689922   2.801674   1.395113   2.097980   0.000000
    11  H    2.452978   3.000221   2.034521   2.959026   1.010058
    12  H    3.606456   3.751858   2.040841   2.374501   1.008148
                   11         12
    11  H    0.000000
    12  H    1.664521   0.000000
 Stoichiometry    C3H8N(2)
 Framework group  C1[X(C3H8N)]
 Deg. of freedom    30
 Full point group                 C1      NOp   1
 Largest Abelian subgroup         C1      NOp   1
 Largest concise Abelian subgroup C1      NOp   1
                         Standard orientation:                         
 ---------------------------------------------------------------------
 Center     Atomic      Atomic             Coordinates (Angstroms)
 Number     Number       Type             X           Y           Z
 ---------------------------------------------------------------------
      1          6           0       -1.878721   -0.171473   -0.095302
      2          1           0       -1.934763   -0.598829   -1.096364
      3          1           0       -2.023925   -0.980856    0.621277
      4          1           0       -2.700511    0.533002    0.024688
      5          6           0       -0.530832    0.504629    0.126619
      6          1           0       -0.406915    1.323957   -0.590572
      7          1           0       -0.517157    0.976593    1.119645
      8          6           0        0.603408   -0.448232   -0.015393
      9          1           0        0.501183   -1.448307    0.386017
     10          7           0        1.896239    0.074992    0.018731
     11          1           0        2.013616    0.938893   -0.491284
     12          1           0        2.631669   -0.578945   -0.200065
 ---------------------------------------------------------------------
 Rotational constants (GHZ):          28.8217776           3.8492804           3.5847434
 Leave Link  202 at Fri Jul  9 10:14:26 2021, MaxMem=   104857600 cpu:               0.0 elap:               0.0
 (Enter /opt/gaussian/g16/l301.exe)
 Standard basis: Jun-CC-pVTZ (5D, 7F)
 Ernie: Thresh=  0.10000D-02 Tol=  0.10000D-05 Strict=F.
 Ernie:  12 primitive shells out of 180 were deleted.
 There are   300 symmetry adapted cartesian basis functions of A   symmetry.
 There are   268 symmetry adapted basis functions of A   symmetry.
   268 basis functions,   384 primitive gaussians,   300 cartesian basis functions
    17 alpha electrons       16 beta electrons
       nuclear repulsion energy       123.8446926069 Hartrees.
 IExCor= 4336 DFT=T Ex+Corr=M062X ExCW=0 ScaHFX=  0.540000
 ScaDFX=  1.000000  1.000000  1.000000  1.000000 ScalE2=  1.000000  1.000000
 IRadAn=      5 IRanWt=     -1 IRanGd=            0 ICorTp=0 IEmpDi=  4
 NAtoms=   12 NActive=   12 NUniq=   12 SFac= 1.00D+00 NAtFMM=   60 NAOKFM=F Big=F
 Integral buffers will be    131072 words long.
 Raffenetti 2 integral format.
 Two-electron integral symmetry is turned on.
 Leave Link  301 at Fri Jul  9 10:14:26 2021, MaxMem=   104857600 cpu:               0.1 elap:               0.1
 (Enter /opt/gaussian/g16/l302.exe)
 NPDir=0 NMtPBC=     1 NCelOv=     1 NCel=       1 NClECP=     1 NCelD=      1
         NCelK=      1 NCelE2=     1 NClLst=     1 CellRange=     0.0.
 One-electron integrals computed using PRISM.
 One-electron integral symmetry used in STVInt
 NBasis=   268 RedAO= T EigKep=  6.72D-05  NBF=   268
 NBsUse=   268 1.00D-06 EigRej= -1.00D+00 NBFU=   268
 Precomputing XC quadrature grid using
 IXCGrd= 4 IRadAn=           5 IRanWt=          -1 IRanGd=           0 AccXCQ= 0.00D+00.
 Generated NRdTot=       0 NPtTot=           0 NUsed=           0 NTot=          32
 NSgBfM=   300   300   300   300   300 MxSgAt=    12 MxSgA2=    12.
 Leave Link  302 at Fri Jul  9 10:14:26 2021, MaxMem=   104857600 cpu:               0.5 elap:               0.5
 (Enter /opt/gaussian/g16/l303.exe)
 DipDrv:  MaxL=1.
 Leave Link  303 at Fri Jul  9 10:14:26 2021, MaxMem=   104857600 cpu:               0.1 elap:               0.1
 (Enter /opt/gaussian/g16/l401.exe)
 ExpMin= 3.57D-02 ExpMax= 1.14D+04 ExpMxC= 3.89D+02 IAcc=3 IRadAn=         5 AccDes= 0.00D+00
 Harris functional with IExCor= 1009 and IRadAn=       5 diagonalized for initial guess.
 HarFok:  IExCor= 1009 AccDes= 0.00D+00 IRadAn=         5 IDoV= 1 UseB2=F ITyADJ=14
 ICtDFT=  3500011 ScaDFX=  1.000000  1.000000  1.000000  1.000000
 FoFCou: FMM=F IPFlag=           0 FMFlag=      100000 FMFlg1=           0
         NFxFlg=           0 DoJE=T BraDBF=F KetDBF=T FulRan=T
         wScrn=  0.000000 ICntrl=       500 IOpCl=  0 I1Cent=   200000004 NGrid=           0
         NMat0=    1 NMatS0=      1 NMatT0=    0 NMatD0=    1 NMtDS0=    0 NMtDT0=    0
 Petite list used in FoFCou.
 Harris En= -173.768522228170    
 JPrj=0 DoOrth=F DoCkMO=F.
 Initial guess <Sx>= 0.0000 <Sy>= 0.0000 <Sz>= 0.5000 <S**2>= 0.7500 S= 0.5000
 Leave Link  401 at Fri Jul  9 10:14:31 2021, MaxMem=   104857600 cpu:               4.3 elap:               4.3
 (Enter /opt/gaussian/g16/l502.exe)
 Integral symmetry usage will be decided dynamically.
 UHF open shell SCF:
 Using DIIS extrapolation, IDIIS=  1040.
 NGot=   104857600 LenX=   104672818 LenY=   104582377
 Requested convergence on RMS density matrix=1.00D-08 within 128 cycles.
 Requested convergence on MAX density matrix=1.00D-06.
 Requested convergence on             energy=1.00D-06.
 No special actions if energy rises.
 Fock matrices will be formed incrementally for  20 cycles.

 Cycle   1  Pass 1  IDiag  1:
 FoFJK:  IHMeth= 1 ICntrl=       0 DoSepK=F KAlg= 0 I1Cent=           0 FoldK=F
 IRaf= 980000000 NMat=       1 IRICut=       1 DoRegI=T DoRafI=F ISym2E= 0 IDoP0=0 IntGTp=1.
 FoFCou: FMM=F IPFlag=           0 FMFlag=      100000 FMFlg1=           0
         NFxFlg=           0 DoJE=F BraDBF=F KetDBF=F FulRan=T
         wScrn=  0.000000 ICntrl=         0 IOpCl=  1 I1Cent=           0 NGrid=           0
         NMat0=    1 NMatS0=      1 NMatT0=    0 NMatD0=    1 NMtDS0=    0 NMtDT0=    0
 Symmetry not used in FoFCou.
 E= -173.626962258992    
 DIIS: error= 2.17D-02 at cycle   1 NSaved=   1.
 NSaved= 1 IEnMin= 1 EnMin= -173.626962258992     IErMin= 1 ErrMin= 2.17D-02
 ErrMax= 2.17D-02  0.00D+00 EMaxC= 1.00D-01 BMatC= 7.99D-01 BMatP= 7.99D-01
 IDIUse=3 WtCom= 7.83D-01 WtEn= 2.17D-01
 Coeff-Com:  0.100D+01
 Coeff-En:   0.100D+01
 Coeff:      0.100D+01
 Gap=     0.145 Goal=   None    Shift=    0.000
 Gap=     0.387 Goal=   None    Shift=    0.000
 GapD=    0.145 DampG=1.000 DampE=0.500 DampFc=0.5000 IDamp=-1.
 Damping current iteration by 5.00D-01
 RMSDP=2.93D-03 MaxDP=1.42D-01              OVMax= 1.80D-01

 Cycle   2  Pass 1  IDiag  1:
 RMSU=  1.46D-03    CP:  9.94D-01
 E= -173.717987442589     Delta-E=       -0.091025183597 Rises=F Damp=T
 DIIS: error= 5.31D-03 at cycle   2 NSaved=   2.
 NSaved= 2 IEnMin= 2 EnMin= -173.717987442589     IErMin= 2 ErrMin= 5.31D-03
 ErrMax= 5.31D-03  0.00D+00 EMaxC= 1.00D-01 BMatC= 4.43D-02 BMatP= 7.99D-01
 IDIUse=3 WtCom= 9.47D-01 WtEn= 5.31D-02
 Coeff-Com: -0.837D-01 0.108D+01
 Coeff-En:   0.000D+00 0.100D+01
 Coeff:     -0.792D-01 0.108D+01
 Gap=     0.203 Goal=   None    Shift=    0.000
 Gap=     0.410 Goal=   None    Shift=    0.000
 RMSDP=1.11D-03 MaxDP=6.64D-02 DE=-9.10D-02 OVMax= 1.06D-01

 Cycle   3  Pass 1  IDiag  1:
 RMSU=  1.03D-03    CP:  9.94D-01  7.28D-01
 E= -173.807041858887     Delta-E=       -0.089054416298 Rises=F Damp=F
 DIIS: error= 1.84D-03 at cycle   3 NSaved=   3.
 NSaved= 3 IEnMin= 3 EnMin= -173.807041858887     IErMin= 3 ErrMin= 1.84D-03
 ErrMax= 1.84D-03  0.00D+00 EMaxC= 1.00D-01 BMatC= 3.77D-03 BMatP= 4.43D-02
 IDIUse=3 WtCom= 9.82D-01 WtEn= 1.84D-02
 Coeff-Com: -0.550D-01 0.173D+00 0.882D+00
 Coeff-En:   0.000D+00 0.000D+00 0.100D+01
 Coeff:     -0.539D-01 0.170D+00 0.884D+00
 Gap=     0.199 Goal=   None    Shift=    0.000
 Gap=     0.355 Goal=   None    Shift=    0.000
 RMSDP=1.63D-04 MaxDP=8.19D-03 DE=-8.91D-02 OVMax= 1.09D-02

 Cycle   4  Pass 1  IDiag  1:
 RMSU=  1.57D-04    CP:  9.93D-01  7.32D-01  1.04D+00
 E= -173.808021013494     Delta-E=       -0.000979154607 Rises=F Damp=F
 DIIS: error= 6.00D-04 at cycle   4 NSaved=   4.
 NSaved= 4 IEnMin= 4 EnMin= -173.808021013494     IErMin= 4 ErrMin= 6.00D-04
 ErrMax= 6.00D-04  0.00D+00 EMaxC= 1.00D-01 BMatC= 4.48D-04 BMatP= 3.77D-03
 IDIUse=3 WtCom= 9.94D-01 WtEn= 6.00D-03
 Coeff-Com: -0.135D-01 0.277D-01 0.271D+00 0.714D+00
 Coeff-En:   0.000D+00 0.000D+00 0.000D+00 0.100D+01
 Coeff:     -0.134D-01 0.276D-01 0.270D+00 0.716D+00
 Gap=     0.202 Goal=   None    Shift=    0.000
 Gap=     0.356 Goal=   None    Shift=    0.000
 RMSDP=6.09D-05 MaxDP=3.85D-03 DE=-9.79D-04 OVMax= 7.31D-03

 Cycle   5  Pass 1  IDiag  1:
 RMSU=  4.44D-05    CP:  9.93D-01  7.16D-01  1.06D+00  1.16D+00
 E= -173.808165648328     Delta-E=       -0.000144634834 Rises=F Damp=F
 DIIS: error= 2.92D-04 at cycle   5 NSaved=   5.
 NSaved= 5 IEnMin= 5 EnMin= -173.808165648328     IErMin= 5 ErrMin= 2.92D-04
 ErrMax= 2.92D-04  0.00D+00 EMaxC= 1.00D-01 BMatC= 1.12D-04 BMatP= 4.48D-04
 IDIUse=3 WtCom= 9.97D-01 WtEn= 2.92D-03
 Coeff-Com:  0.404D-02-0.164D-01-0.494D-01 0.248D+00 0.814D+00
 Coeff-En:   0.000D+00 0.000D+00 0.000D+00 0.000D+00 0.100D+01
 Coeff:      0.403D-02-0.164D-01-0.492D-01 0.247D+00 0.815D+00
 Gap=     0.203 Goal=   None    Shift=    0.000
 Gap=     0.356 Goal=   None    Shift=    0.000
 RMSDP=3.51D-05 MaxDP=2.13D-03 DE=-1.45D-04 OVMax= 3.87D-03

 Cycle   6  Pass 1  IDiag  1:
 RMSU=  1.87D-05    CP:  9.93D-01  7.08D-01  1.07D+00  1.31D+00  1.24D+00
 E= -173.808218661201     Delta-E=       -0.000053012873 Rises=F Damp=F
 DIIS: error= 1.70D-04 at cycle   6 NSaved=   6.
 NSaved= 6 IEnMin= 6 EnMin= -173.808218661201     IErMin= 6 ErrMin= 1.70D-04
 ErrMax= 1.70D-04  0.00D+00 EMaxC= 1.00D-01 BMatC= 1.49D-05 BMatP= 1.12D-04
 IDIUse=3 WtCom= 9.98D-01 WtEn= 1.70D-03
 Coeff-Com:  0.351D-02-0.796D-02-0.731D-01-0.143D+00 0.330D-01 0.119D+01
 Coeff-En:   0.000D+00 0.000D+00 0.000D+00 0.000D+00 0.000D+00 0.100D+01
 Coeff:      0.351D-02-0.794D-02-0.730D-01-0.143D+00 0.330D-01 0.119D+01
 Gap=     0.203 Goal=   None    Shift=    0.000
 Gap=     0.356 Goal=   None    Shift=    0.000
 RMSDP=2.35D-05 MaxDP=1.15D-03 DE=-5.30D-05 OVMax= 4.95D-03

 Cycle   7  Pass 1  IDiag  1:
 RMSU=  1.07D-05    CP:  9.93D-01  7.03D-01  1.08D+00  1.38D+00  1.48D+00
                    CP:  1.57D+00
 E= -173.808235601559     Delta-E=       -0.000016940358 Rises=F Damp=F
 DIIS: error= 5.59D-05 at cycle   7 NSaved=   7.
 NSaved= 7 IEnMin= 7 EnMin= -173.808235601559     IErMin= 7 ErrMin= 5.59D-05
 ErrMax= 5.59D-05  0.00D+00 EMaxC= 1.00D-01 BMatC= 5.24D-06 BMatP= 1.49D-05
 IDIUse=1 WtCom= 1.00D+00 WtEn= 0.00D+00
 Coeff-Com:  0.628D-03-0.648D-03-0.231D-01-0.962D-01-0.124D+00 0.531D+00
 Coeff-Com:  0.712D+00
 Coeff:      0.628D-03-0.648D-03-0.231D-01-0.962D-01-0.124D+00 0.531D+00
 Coeff:      0.712D+00
 Gap=     0.203 Goal=   None    Shift=    0.000
 Gap=     0.356 Goal=   None    Shift=    0.000
 RMSDP=6.82D-06 MaxDP=3.00D-04 DE=-1.69D-05 OVMax= 1.04D-03

 Cycle   8  Pass 1  IDiag  1:
 RMSU=  3.36D-06    CP:  9.93D-01  7.02D-01  1.08D+00  1.39D+00  1.53D+00
                    CP:  1.80D+00  1.26D+00
 E= -173.808237779296     Delta-E=       -0.000002177737 Rises=F Damp=F
 DIIS: error= 1.86D-05 at cycle   8 NSaved=   8.
 NSaved= 8 IEnMin= 8 EnMin= -173.808237779296     IErMin= 8 ErrMin= 1.86D-05
 ErrMax= 1.86D-05  0.00D+00 EMaxC= 1.00D-01 BMatC= 3.60D-07 BMatP= 5.24D-06
 IDIUse=1 WtCom= 1.00D+00 WtEn= 0.00D+00
 Coeff-Com: -0.814D-03 0.198D-02 0.135D-01 0.170D-01-0.345D-01-0.150D+00
 Coeff-Com:  0.990D-01 0.105D+01
 Coeff:     -0.814D-03 0.198D-02 0.135D-01 0.170D-01-0.345D-01-0.150D+00
 Coeff:      0.990D-01 0.105D+01
 Gap=     0.203 Goal=   None    Shift=    0.000
 Gap=     0.356 Goal=   None    Shift=    0.000
 RMSDP=4.27D-06 MaxDP=2.44D-04 DE=-2.18D-06 OVMax= 6.42D-04

 Cycle   9  Pass 1  IDiag  1:
 RMSU=  1.69D-06    CP:  9.93D-01  7.03D-01  1.08D+00  1.38D+00  1.53D+00
                    CP:  1.91D+00  1.46D+00  1.27D+00
 E= -173.808238063759     Delta-E=       -0.000000284463 Rises=F Damp=F
 DIIS: error= 4.88D-06 at cycle   9 NSaved=   9.
 NSaved= 9 IEnMin= 9 EnMin= -173.808238063759     IErMin= 9 ErrMin= 4.88D-06
 ErrMax= 4.88D-06  0.00D+00 EMaxC= 1.00D-01 BMatC= 3.08D-08 BMatP= 3.60D-07
 IDIUse=1 WtCom= 1.00D+00 WtEn= 0.00D+00
 Coeff-Com: -0.126D-03 0.291D-03 0.352D-02 0.933D-02 0.421D-02-0.632D-01
 Coeff-Com: -0.456D-01 0.135D+00 0.957D+00
 Coeff:     -0.126D-03 0.291D-03 0.352D-02 0.933D-02 0.421D-02-0.632D-01
 Coeff:     -0.456D-01 0.135D+00 0.957D+00
 Gap=     0.203 Goal=   None    Shift=    0.000
 Gap=     0.356 Goal=   None    Shift=    0.000
 RMSDP=1.03D-06 MaxDP=5.93D-05 DE=-2.84D-07 OVMax= 1.39D-04

 Cycle  10  Pass 1  IDiag  1:
 RMSU=  4.98D-07    CP:  9.93D-01  7.03D-01  1.08D+00  1.38D+00  1.53D+00
                    CP:  1.93D+00  1.49D+00  1.36D+00  1.28D+00
 E= -173.808238084161     Delta-E=       -0.000000020402 Rises=F Damp=F
 DIIS: error= 1.80D-06 at cycle  10 NSaved=  10.
 NSaved=10 IEnMin=10 EnMin= -173.808238084161     IErMin=10 ErrMin= 1.80D-06
 ErrMax= 1.80D-06  0.00D+00 EMaxC= 1.00D-01 BMatC= 4.24D-09 BMatP= 3.08D-08
 IDIUse=1 WtCom= 1.00D+00 WtEn= 0.00D+00
 Coeff-Com:  0.831D-04-0.192D-03-0.964D-03-0.748D-04 0.504D-02 0.625D-02
 Coeff-Com: -0.202D-01-0.953D-01 0.164D+00 0.942D+00
 Coeff:      0.831D-04-0.192D-03-0.964D-03-0.748D-04 0.504D-02 0.625D-02
 Coeff:     -0.202D-01-0.953D-01 0.164D+00 0.942D+00
 Gap=     0.203 Goal=   None    Shift=    0.000
 Gap=     0.356 Goal=   None    Shift=    0.000
 RMSDP=3.90D-07 MaxDP=2.74D-05 DE=-2.04D-08 OVMax= 3.54D-05

 Cycle  11  Pass 1  IDiag  1:
 RMSU=  1.71D-07    CP:  9.93D-01  7.03D-01  1.08D+00  1.38D+00  1.53D+00
                    CP:  1.94D+00  1.49D+00  1.37D+00  1.41D+00  1.30D+00
 E= -173.808238086271     Delta-E=       -0.000000002110 Rises=F Damp=F
 DIIS: error= 8.27D-07 at cycle  11 NSaved=  11.
 NSaved=11 IEnMin=11 EnMin= -173.808238086271     IErMin=11 ErrMin= 8.27D-07
 ErrMax= 8.27D-07  0.00D+00 EMaxC= 1.00D-01 BMatC= 8.03D-10 BMatP= 4.24D-09
 IDIUse=1 WtCom= 1.00D+00 WtEn= 0.00D+00
 Coeff-Com:  0.364D-04-0.883D-04-0.677D-03-0.106D-02 0.889D-03 0.859D-02
 Coeff-Com: -0.135D-02-0.425D-01-0.759D-01 0.291D+00 0.821D+00
 Coeff:      0.364D-04-0.883D-04-0.677D-03-0.106D-02 0.889D-03 0.859D-02
 Coeff:     -0.135D-02-0.425D-01-0.759D-01 0.291D+00 0.821D+00
 Gap=     0.203 Goal=   None    Shift=    0.000
 Gap=     0.356 Goal=   None    Shift=    0.000
 RMSDP=9.44D-08 MaxDP=3.41D-06 DE=-2.11D-09 OVMax= 9.67D-06

 Cycle  12  Pass 1  IDiag  1:
 RMSU=  5.86D-08    CP:  9.93D-01  7.03D-01  1.08D+00  1.38D+00  1.53D+00
                    CP:  1.94D+00  1.49D+00  1.38D+00  1.43D+00  1.37D+00
                    CP:  1.17D+00
 E= -173.808238086567     Delta-E=       -0.000000000296 Rises=F Damp=F
 DIIS: error= 1.91D-07 at cycle  12 NSaved=  12.
 NSaved=12 IEnMin=12 EnMin= -173.808238086567     IErMin=12 ErrMin= 1.91D-07
 ErrMax= 1.91D-07  0.00D+00 EMaxC= 1.00D-01 BMatC= 6.15D-11 BMatP= 8.03D-10
 IDIUse=1 WtCom= 1.00D+00 WtEn= 0.00D+00
 Coeff-Com: -0.690D-05 0.128D-04 0.338D-04-0.721D-04-0.349D-03 0.341D-03
 Coeff-Com:  0.201D-02 0.577D-02-0.336D-01-0.720D-01 0.146D+00 0.952D+00
 Coeff:     -0.690D-05 0.128D-04 0.338D-04-0.721D-04-0.349D-03 0.341D-03
 Coeff:      0.201D-02 0.577D-02-0.336D-01-0.720D-01 0.146D+00 0.952D+00
 Gap=     0.203 Goal=   None    Shift=    0.000
 Gap=     0.356 Goal=   None    Shift=    0.000
 RMSDP=3.04D-08 MaxDP=1.19D-06 DE=-2.96D-10 OVMax= 2.23D-06

 Cycle  13  Pass 1  IDiag  1:
 RMSU=  2.04D-08    CP:  9.93D-01  7.03D-01  1.08D+00  1.38D+00  1.53D+00
                    CP:  1.94D+00  1.49D+00  1.38D+00  1.43D+00  1.38D+00
                    CP:  1.25D+00  1.18D+00
 E= -173.808238086595     Delta-E=       -0.000000000027 Rises=F Damp=F
 DIIS: error= 4.27D-08 at cycle  13 NSaved=  13.
 NSaved=13 IEnMin=13 EnMin= -173.808238086595     IErMin=13 ErrMin= 4.27D-08
 ErrMax= 4.27D-08  0.00D+00 EMaxC= 1.00D-01 BMatC= 2.91D-12 BMatP= 6.15D-11
 IDIUse=1 WtCom= 1.00D+00 WtEn= 0.00D+00
 Coeff-Com: -0.213D-05 0.515D-05 0.330D-04 0.334D-04-0.765D-04-0.367D-03
 Coeff-Com:  0.296D-03 0.261D-02 0.193D-02-0.201D-01-0.457D-01 0.586D-01
 Coeff-Com:  0.100D+01
 Coeff:     -0.213D-05 0.515D-05 0.330D-04 0.334D-04-0.765D-04-0.367D-03
 Coeff:      0.296D-03 0.261D-02 0.193D-02-0.201D-01-0.457D-01 0.586D-01
 Coeff:      0.100D+01
 Gap=     0.203 Goal=   None    Shift=    0.000
 Gap=     0.356 Goal=   None    Shift=    0.000
 RMSDP=1.38D-08 MaxDP=9.47D-07 DE=-2.74D-11 OVMax= 7.60D-07

 Cycle  14  Pass 1  IDiag  1:
 RMSU=  6.78D-09    CP:  9.93D-01  7.03D-01  1.08D+00  1.38D+00  1.53D+00
                    CP:  1.94D+00  1.49D+00  1.38D+00  1.43D+00  1.38D+00
                    CP:  1.24D+00  1.22D+00  1.29D+00
 E= -173.808238086595     Delta-E=       -0.000000000000 Rises=F Damp=F
 DIIS: error= 1.56D-08 at cycle  14 NSaved=  14.
 NSaved=14 IEnMin=14 EnMin= -173.808238086595     IErMin=14 ErrMin= 1.56D-08
 ErrMax= 1.56D-08  0.00D+00 EMaxC= 1.00D-01 BMatC= 2.72D-13 BMatP= 2.91D-12
 IDIUse=1 WtCom= 1.00D+00 WtEn= 0.00D+00
 Coeff-Com:  0.541D-06-0.855D-06-0.177D-05 0.186D-05 0.143D-04-0.632D-05
 Coeff-Com: -0.117D-03-0.243D-03 0.255D-02 0.442D-02-0.151D-01-0.700D-01
 Coeff-Com:  0.543D-01 0.102D+01
 Coeff:      0.541D-06-0.855D-06-0.177D-05 0.186D-05 0.143D-04-0.632D-05
 Coeff:     -0.117D-03-0.243D-03 0.255D-02 0.442D-02-0.151D-01-0.700D-01
 Coeff:      0.543D-01 0.102D+01
 Gap=     0.203 Goal=   None    Shift=    0.000
 Gap=     0.356 Goal=   None    Shift=    0.000
 RMSDP=5.70D-09 MaxDP=3.09D-07 DE=-3.98D-13 OVMax= 3.76D-07

 SCF Done:  E(UM062X) =  -173.808238087     A.U. after   14 cycles
            NFock= 14  Conv=0.57D-08     -V/T= 2.0061
 <Sx>= 0.0000 <Sy>= 0.0000 <Sz>= 0.5000 <S**2>= 0.7546 S= 0.5023
 <L.S>=  0.00000000000    
 KE= 1.727570377532D+02 PE=-6.508857806563D+02 EE= 1.804758122095D+02
 Annihilation of the first spin contaminant:
 S**2 before annihilation     0.7546,   after     0.7500
 Leave Link  502 at Fri Jul  9 10:21:25 2021, MaxMem=   104857600 cpu:             414.6 elap:             414.5
 (Enter /opt/gaussian/g16/l801.exe)
 DoSCS=F DFT=T ScalE2(SS,OS)=  1.000000  1.000000
 Range of M.O.s used for correlation:     1   268
 NBasis=   268 NAE=    17 NBE=    16 NFC=     0 NFV=     0
 NROrb=    268 NOA=    17 NOB=    16 NVA=   251 NVB=   252

 **** Warning!!: The largest alpha MO coefficient is  0.26548861D+02


 **** Warning!!: The largest beta MO coefficient is  0.30791387D+02

 Leave Link  801 at Fri Jul  9 10:21:25 2021, MaxMem=   104857600 cpu:               0.0 elap:               0.0
 (Enter /opt/gaussian/g16/l1101.exe)
 Using compressed storage, NAtomX=    12.
 Will process     13 centers per pass.
 Leave Link 1101 at Fri Jul  9 10:21:25 2021, MaxMem=   104857600 cpu:               0.3 elap:               0.3
 (Enter /opt/gaussian/g16/l1102.exe)
 Symmetrizing basis deriv contribution to polar:
 IMax=3 JMax=2 DiffMx= 0.00D+00
 Leave Link 1102 at Fri Jul  9 10:21:26 2021, MaxMem=   104857600 cpu:               0.1 elap:               0.1
 (Enter /opt/gaussian/g16/l1110.exe)
 Forming Gx(P) for the SCF density, NAtomX=    12.
 Integral derivatives from FoFJK, PRISM(SPDF).
 Do as many integral derivatives as possible in FoFJK.
 G2DrvN: MDV=     104856228.
 G2DrvN: will do    13 centers at a time, making    1 passes.
 Calling FoFCou, ICntrl=  3107 FMM=F I1Cent=   0 AccDes= 0.00D+00.
 FoFJK:  IHMeth= 1 ICntrl=    3107 DoSepK=F KAlg= 0 I1Cent=           0 FoldK=F
 IRaf=         0 NMat=       1 IRICut=       1 DoRegI=T DoRafI=F ISym2E= 0 IDoP0=0 IntGTp=1.
 FoFCou: FMM=F IPFlag=           0 FMFlag=      100000 FMFlg1=           0
         NFxFlg=           0 DoJE=F BraDBF=F KetDBF=F FulRan=T
         wScrn=  0.000000 ICntrl=      3107 IOpCl=  1 I1Cent=           0 NGrid=           0
         NMat0=    1 NMatS0=      1 NMatT0=    0 NMatD0=    1 NMtDS0=    0 NMtDT0=    0
 Symmetry not used in FoFCou.
 End of G2Drv F.D. properties file   721 does not exist.
 End of G2Drv F.D. properties file   722 does not exist.
 End of G2Drv F.D. properties file   788 does not exist.
 Leave Link 1110 at Fri Jul  9 10:32:04 2021, MaxMem=   104857600 cpu:             638.4 elap:             638.4
 (Enter /opt/gaussian/g16/l1002.exe)
 Minotr:  UHF open shell wavefunction.
          IDoAtm=111111111111
          Direct CPHF calculation.
          Differentiating once with respect to electric field.
                with respect to dipole field.
          Differentiating once with respect to nuclear coordinates.
          Requested convergence is 1.0D-08 RMS, and 1.0D-07 maximum.
          Secondary convergence is 1.0D-12 RMS, and 1.0D-12 maximum.
          NewPWx=T KeepS1=F KeepF1=F KeepIn=T MapXYZ=F SortEE=F KeepMc=T.
         3689 words used for storage of precomputed grid.
 Two-electron integrals replicated using symmetry.
          MDV=     104857600 using IRadAn=       1.
          Solving linear equations simultaneously, MaxMat=     384.
 FoF2E skips out because all densities are zero.
 CalDSu exits because no D1Ps are significant.
 FoFJK:  IHMeth= 1 ICntrl=       0 DoSepK=F KAlg= 0 I1Cent=           0 FoldK=F
 IRaf= 980000000 NMat=      36 IRICut=      90 DoRegI=T DoRafI=T ISym2E= 2 IDoP0=3 IntGTp=3.
 FoFCou: FMM=F IPFlag=           0 FMFlag=      100000 FMFlg1=           0
         NFxFlg=           0 DoJE=F BraDBF=F KetDBF=F FulRan=T
         wScrn=  0.000000 ICntrl=         0 IOpCl=  1 I1Cent=           0 NGrid=           0
         NMat0=   36 NMatS0=     36 NMatT0=    0 NMatD0=   36 NMtDS0=    0 NMtDT0=    0
 Integrals replicated using symmetry in FoFCou.
 Raff kept on since  97.43% of shell-pairs survive, threshold=   0.20 IRatSp=97.
          There are    39 degrees of freedom in the 1st order CPHF.  IDoFFX=6 NUNeed=     3.
     36 vectors produced by pass  0 Test12= 2.13D-14 2.56D-09 XBig12= 4.91D+01 1.56D+00.
 AX will form    36 AO Fock derivatives at one time.
     36 vectors produced by pass  1 Test12= 2.13D-14 2.56D-09 XBig12= 2.88D+00 3.65D-01.
     36 vectors produced by pass  2 Test12= 2.13D-14 2.56D-09 XBig12= 6.34D-02 5.07D-02.
     36 vectors produced by pass  3 Test12= 2.13D-14 2.56D-09 XBig12= 1.02D-03 3.95D-03.
     36 vectors produced by pass  4 Test12= 2.13D-14 2.56D-09 XBig12= 1.12D-05 4.10D-04.
     36 vectors produced by pass  5 Test12= 2.13D-14 2.56D-09 XBig12= 1.49D-07 3.94D-05.
     36 vectors produced by pass  6 Test12= 2.13D-14 2.56D-09 XBig12= 1.42D-09 3.27D-06.
     11 vectors produced by pass  7 Test12= 2.13D-14 2.56D-09 XBig12= 8.31D-12 2.26D-07.
      3 vectors produced by pass  8 Test12= 2.13D-14 2.56D-09 XBig12= 5.12D-14 2.15D-08.
 InvSVY:  IOpt=1 It=  1 EMax= 5.33D-15
 Solved reduced A of dimension   266 with    39 vectors.
 FullF1:  Do perturbations      1 to       3.
 Isotropic polarizability for W=    0.000000       50.82 Bohr**3.
 End of Minotr F.D. properties file   721 does not exist.
 End of Minotr F.D. properties file   722 does not exist.
 End of Minotr F.D. properties file   788 does not exist.
 Leave Link 1002 at Fri Jul  9 10:55:25 2021, MaxMem=   104857600 cpu:            1401.4 elap:            1401.2
 (Enter /opt/gaussian/g16/l601.exe)
 Copying SCF densities to generalized density rwf, IOpCl= 1 IROHF=0.

 **********************************************************************

            Population analysis using the SCF Density.

 **********************************************************************

 Orbital symmetries:
 Alpha Orbitals:
       Occupied  (A) (A) (A) (A) (A) (A) (A) (A) (A) (A) (A) (A)
                 (A) (A) (A) (A) (A)
       Virtual   (A) (A) (A) (A) (A) (A) (A) (A) (A) (A) (A) (A)
                 (A) (A) (A) (A) (A) (A) (A) (A) (A) (A) (A) (A)
                 (A) (A) (A) (A) (A) (A) (A) (A) (A) (A) (A) (A)
                 (A) (A) (A) (A) (A) (A) (A) (A) (A) (A) (A) (A)
                 (A) (A) (A) (A) (A) (A) (A) (A) (A) (A) (A) (A)
                 (A) (A) (A) (A) (A) (A) (A) (A) (A) (A) (A) (A)
                 (A) (A) (A) (A) (A) (A) (A) (A) (A) (A) (A) (A)
                 (A) (A) (A) (A) (A) (A) (A) (A) (A) (A) (A) (A)
                 (A) (A) (A) (A) (A) (A) (A) (A) (A) (A) (A) (A)
                 (A) (A) (A) (A) (A) (A) (A) (A) (A) (A) (A) (A)
                 (A) (A) (A) (A) (A) (A) (A) (A) (A) (A) (A) (A)
                 (A) (A) (A) (A) (A) (A) (A) (A) (A) (A) (A) (A)
                 (A) (A) (A) (A) (A) (A) (A) (A) (A) (A) (A) (A)
                 (A) (A) (A) (A) (A) (A) (A) (A) (A) (A) (A) (A)
                 (A) (A) (A) (A) (A) (A) (A) (A) (A) (A) (A) (A)
                 (A) (A) (A) (A) (A) (A) (A) (A) (A) (A) (A) (A)
                 (A) (A) (A) (A) (A) (A) (A) (A) (A) (A) (A) (A)
                 (A) (A) (A) (A) (A) (A) (A) (A) (A) (A) (A) (A)
                 (A) (A) (A) (A) (A) (A) (A) (A) (A) (A) (A) (A)
                 (A) (A) (A) (A) (A) (A) (A) (A) (A) (A) (A) (A)
                 (A) (A) (A) (A) (A) (A) (A) (A) (A) (A) (A)
 Beta  Orbitals:
       Occupied  (A) (A) (A) (A) (A) (A) (A) (A) (A) (A) (A) (A)
                 (A) (A) (A) (A)
       Virtual   (A) (A) (A) (A) (A) (A) (A) (A) (A) (A) (A) (A)
                 (A) (A) (A) (A) (A) (A) (A) (A) (A) (A) (A) (A)
                 (A) (A) (A) (A) (A) (A) (A) (A) (A) (A) (A) (A)
                 (A) (A) (A) (A) (A) (A) (A) (A) (A) (A) (A) (A)
                 (A) (A) (A) (A) (A) (A) (A) (A) (A) (A) (A) (A)
                 (A) (A) (A) (A) (A) (A) (A) (A) (A) (A) (A) (A)
                 (A) (A) (A) (A) (A) (A) (A) (A) (A) (A) (A) (A)
                 (A) (A) (A) (A) (A) (A) (A) (A) (A) (A) (A) (A)
                 (A) (A) (A) (A) (A) (A) (A) (A) (A) (A) (A) (A)
                 (A) (A) (A) (A) (A) (A) (A) (A) (A) (A) (A) (A)
                 (A) (A) (A) (A) (A) (A) (A) (A) (A) (A) (A) (A)
                 (A) (A) (A) (A) (A) (A) (A) (A) (A) (A) (A) (A)
                 (A) (A) (A) (A) (A) (A) (A) (A) (A) (A) (A) (A)
                 (A) (A) (A) (A) (A) (A) (A) (A) (A) (A) (A) (A)
                 (A) (A) (A) (A) (A) (A) (A) (A) (A) (A) (A) (A)
                 (A) (A) (A) (A) (A) (A) (A) (A) (A) (A) (A) (A)
                 (A) (A) (A) (A) (A) (A) (A) (A) (A) (A) (A) (A)
                 (A) (A) (A) (A) (A) (A) (A) (A) (A) (A) (A) (A)
                 (A) (A) (A) (A) (A) (A) (A) (A) (A) (A) (A) (A)
                 (A) (A) (A) (A) (A) (A) (A) (A) (A) (A) (A) (A)
                 (A) (A) (A) (A) (A) (A) (A) (A) (A) (A) (A) (A)
 The electronic state is 2-A.
 Alpha  occ. eigenvalues --  -14.74965 -10.54841 -10.53068 -10.51995  -1.01309
 Alpha  occ. eigenvalues --   -0.86852  -0.74428  -0.66657  -0.58292  -0.53590
 Alpha  occ. eigenvalues --   -0.51795  -0.46129  -0.43083  -0.41769  -0.40438
 Alpha  occ. eigenvalues --   -0.38471  -0.19550
 Alpha virt. eigenvalues --    0.00795   0.01580   0.01905   0.03370   0.04762
 Alpha virt. eigenvalues --    0.05489   0.06630   0.06713   0.07435   0.08787
 Alpha virt. eigenvalues --    0.09979   0.12078   0.13924   0.14358   0.15239
 Alpha virt. eigenvalues --    0.16548   0.18625   0.18841   0.20338   0.21205
 Alpha virt. eigenvalues --    0.22581   0.23736   0.24450   0.26046   0.26622
 Alpha virt. eigenvalues --    0.27010   0.27246   0.28686   0.29327   0.29986
 Alpha virt. eigenvalues --    0.32677   0.33300   0.33836   0.34366   0.37599
 Alpha virt. eigenvalues --    0.39129   0.39855   0.41543   0.43015   0.43293
 Alpha virt. eigenvalues --    0.44829   0.46211   0.47394   0.48953   0.50850
 Alpha virt. eigenvalues --    0.51565   0.53187   0.54922   0.56047   0.57289
 Alpha virt. eigenvalues --    0.60532   0.62229   0.64308   0.65041   0.65965
 Alpha virt. eigenvalues --    0.66763   0.68686   0.69602   0.70883   0.72089
 Alpha virt. eigenvalues --    0.73643   0.75539   0.76268   0.80238   0.82376
 Alpha virt. eigenvalues --    0.84750   0.86140   0.89252   0.90513   0.92593
 Alpha virt. eigenvalues --    0.94561   0.97039   0.98620   1.02524   1.04230
 Alpha virt. eigenvalues --    1.05620   1.08603   1.10806   1.13462   1.16364
 Alpha virt. eigenvalues --    1.17547   1.17734   1.21529   1.22195   1.23144
 Alpha virt. eigenvalues --    1.24298   1.25547   1.27108   1.30713   1.31221
 Alpha virt. eigenvalues --    1.32026   1.35232   1.35812   1.37060   1.41137
 Alpha virt. eigenvalues --    1.42200   1.43485   1.44099   1.48250   1.48990
 Alpha virt. eigenvalues --    1.52667   1.53386   1.57110   1.61056   1.63374
 Alpha virt. eigenvalues --    1.66336   1.67793   1.70377   1.76206   1.78904
 Alpha virt. eigenvalues --    1.85412   1.86546   1.91421   1.96854   2.03440
 Alpha virt. eigenvalues --    2.33231   2.42741   2.49237   2.52416   2.53761
 Alpha virt. eigenvalues --    2.57038   2.58465   2.60883   2.65500   2.68476
 Alpha virt. eigenvalues --    2.74238   2.76231   2.77472   2.81364   2.83088
 Alpha virt. eigenvalues --    2.85067   2.85585   2.89143   2.93417   2.95078
 Alpha virt. eigenvalues --    2.96575   3.00151   3.00372   3.02152   3.04629
 Alpha virt. eigenvalues --    3.06677   3.08048   3.11007   3.12390   3.13794
 Alpha virt. eigenvalues --    3.14962   3.16344   3.18454   3.19778   3.19951
 Alpha virt. eigenvalues --    3.23179   3.24665   3.26468   3.29117   3.30162
 Alpha virt. eigenvalues --    3.32433   3.34567   3.38131   3.39908   3.40562
 Alpha virt. eigenvalues --    3.43757   3.45780   3.46886   3.49810   3.50626
 Alpha virt. eigenvalues --    3.53784   3.56775   3.59468   3.60269   3.61706
 Alpha virt. eigenvalues --    3.67702   3.69515   3.70918   3.75191   3.82451
 Alpha virt. eigenvalues --    3.83912   3.85674   3.86250   3.87524   3.92320
 Alpha virt. eigenvalues --    3.93289   3.95095   3.95922   3.96993   3.98866
 Alpha virt. eigenvalues --    4.01671   4.03630   4.05222   4.07547   4.07940
 Alpha virt. eigenvalues --    4.08798   4.11884   4.14044   4.16463   4.18582
 Alpha virt. eigenvalues --    4.20808   4.23221   4.27843   4.28159   4.29808
 Alpha virt. eigenvalues --    4.32651   4.33877   4.37530   4.41189   4.45714
 Alpha virt. eigenvalues --    4.49400   4.54665   4.57187   4.61396   4.70481
 Alpha virt. eigenvalues --    4.74577   4.76188   4.78978   4.83623   4.85970
 Alpha virt. eigenvalues --    4.86946   4.88358   4.89345   4.92982   4.98007
 Alpha virt. eigenvalues --    4.99467   5.03407   5.10028   5.12085   5.19635
 Alpha virt. eigenvalues --    5.27003   5.32036   5.34014   5.35510   5.37298
 Alpha virt. eigenvalues --    5.43100   5.44292   5.47969   5.52666   5.55178
 Alpha virt. eigenvalues --    5.62383   5.65649   5.68322   5.79123   5.99465
 Alpha virt. eigenvalues --    6.00236   6.01487   6.02954   6.09195   6.18120
 Alpha virt. eigenvalues --    6.29142   6.96885  11.58969  13.26720  13.73325
 Alpha virt. eigenvalues --   13.91287
  Beta  occ. eigenvalues --  -14.74696 -10.54148 -10.53113 -10.51983  -0.99942
  Beta  occ. eigenvalues --   -0.86328  -0.73267  -0.65284  -0.57703  -0.52577
  Beta  occ. eigenvalues --   -0.50799  -0.45568  -0.41868  -0.40979  -0.39831
  Beta  occ. eigenvalues --   -0.35451
  Beta virt. eigenvalues --    0.00160   0.01300   0.02021   0.02379   0.03461
  Beta virt. eigenvalues --    0.04983   0.05625   0.06665   0.06853   0.08109
  Beta virt. eigenvalues --    0.08851   0.10062   0.12406   0.14089   0.14355
  Beta virt. eigenvalues --    0.15523   0.16655   0.18302   0.18814   0.20413
  Beta virt. eigenvalues --    0.21300   0.22888   0.23938   0.24114   0.25938
  Beta virt. eigenvalues --    0.26486   0.26522   0.26891   0.27576   0.28452
  Beta virt. eigenvalues --    0.29437   0.32551   0.33115   0.33659   0.33873
  Beta virt. eigenvalues --    0.36429   0.38919   0.39076   0.40740   0.42571
  Beta virt. eigenvalues --    0.43257   0.44305   0.45306   0.47136   0.48650
  Beta virt. eigenvalues --    0.50541   0.51222   0.51734   0.54183   0.56063
  Beta virt. eigenvalues --    0.56695   0.60384   0.61819   0.63937   0.65209
  Beta virt. eigenvalues --    0.65447   0.66341   0.68320   0.69137   0.70912
  Beta virt. eigenvalues --    0.71834   0.73332   0.74915   0.75930   0.79892
  Beta virt. eigenvalues --    0.82269   0.84410   0.85794   0.88372   0.89994
  Beta virt. eigenvalues --    0.92317   0.94592   0.96750   0.98617   1.02167
  Beta virt. eigenvalues --    1.04131   1.05673   1.08493   1.10352   1.12839
  Beta virt. eigenvalues --    1.15961   1.17168   1.17452   1.21418   1.21952
  Beta virt. eigenvalues --    1.22898   1.24050   1.25378   1.27192   1.30763
  Beta virt. eigenvalues --    1.30931   1.31871   1.35488   1.35868   1.37235
  Beta virt. eigenvalues --    1.41121   1.42155   1.43408   1.44231   1.48192
  Beta virt. eigenvalues --    1.48730   1.52757   1.54094   1.57376   1.60947
  Beta virt. eigenvalues --    1.63527   1.66924   1.67748   1.70283   1.76218
  Beta virt. eigenvalues --    1.79209   1.85549   1.86504   1.91690   1.97847
  Beta virt. eigenvalues --    2.03512   2.37290   2.43661   2.49813   2.52576
  Beta virt. eigenvalues --    2.54016   2.57428   2.59336   2.61099   2.66161
  Beta virt. eigenvalues --    2.69327   2.74973   2.77594   2.78856   2.82758
  Beta virt. eigenvalues --    2.85207   2.85518   2.86381   2.89803   2.94361
  Beta virt. eigenvalues --    2.95690   2.97214   3.01829   3.01968   3.03138
  Beta virt. eigenvalues --    3.05122   3.07965   3.08365   3.12479   3.13482
  Beta virt. eigenvalues --    3.15279   3.15681   3.17141   3.18869   3.20231
  Beta virt. eigenvalues --    3.21543   3.24099   3.26523   3.27090   3.29838
  Beta virt. eigenvalues --    3.30855   3.33073   3.35273   3.38599   3.40698
  Beta virt. eigenvalues --    3.42103   3.43912   3.46236   3.47639   3.50354
  Beta virt. eigenvalues --    3.51272   3.54388   3.57306   3.59837   3.60905
  Beta virt. eigenvalues --    3.62487   3.68595   3.69867   3.71211   3.75808
  Beta virt. eigenvalues --    3.82650   3.84327   3.86119   3.86725   3.87829
  Beta virt. eigenvalues --    3.92565   3.93806   3.95449   3.96317   3.97162
  Beta virt. eigenvalues --    3.99364   4.01875   4.03980   4.05527   4.07651
  Beta virt. eigenvalues --    4.08099   4.08896   4.12156   4.14349   4.17282
  Beta virt. eigenvalues --    4.19150   4.21182   4.23421   4.28001   4.28581
  Beta virt. eigenvalues --    4.29966   4.33011   4.34850   4.38126   4.41361
  Beta virt. eigenvalues --    4.45884   4.49699   4.55167   4.58273   4.62456
  Beta virt. eigenvalues --    4.71340   4.75255   4.77226   4.80158   4.84206
  Beta virt. eigenvalues --    4.87106   4.87250   4.88900   4.89786   4.94142
  Beta virt. eigenvalues --    4.99045   5.01207   5.03864   5.11116   5.13423
  Beta virt. eigenvalues --    5.20537   5.27664   5.32391   5.34224   5.35872
  Beta virt. eigenvalues --    5.37931   5.43505   5.44806   5.48632   5.53593
  Beta virt. eigenvalues --    5.56662   5.63595   5.68866   5.69427   5.80066
  Beta virt. eigenvalues --    5.99753   6.00599   6.01837   6.03249   6.08883
  Beta virt. eigenvalues --    6.18432   6.30874   6.97859  11.60255  13.27256
  Beta virt. eigenvalues --   13.73337  13.91677
          Condensed to atoms (all electrons):
               1          2          3          4          5          6
     1  C    5.246193   0.413651   0.405008   0.396745   0.286229  -0.020080
     2  H    0.413651   0.443167  -0.011864  -0.014406  -0.041365  -0.001479
     3  H    0.405008  -0.011864   0.447484  -0.013311  -0.043954   0.004116
     4  H    0.396745  -0.014406  -0.013311   0.450636  -0.031256  -0.006240
     5  C    0.286229  -0.041365  -0.043954  -0.031256   5.319195   0.403030
     6  H   -0.020080  -0.001479   0.004116  -0.006240   0.403030   0.439515
     7  H   -0.024061   0.003509  -0.001895  -0.005196   0.400169  -0.010576
     8  C   -0.040102  -0.000593   0.001654   0.008648   0.136890  -0.054355
     9  H    0.001193   0.002139   0.001326  -0.000096  -0.038467   0.004297
    10  N    0.011343   0.000350  -0.000154  -0.000912  -0.002223  -0.001799
    11  H    0.000128   0.000095  -0.000007  -0.000007   0.000975  -0.000721
    12  H   -0.001109  -0.000035  -0.000021   0.000026  -0.001225   0.000019
               7          8          9         10         11         12
     1  C   -0.024061  -0.040102   0.001193   0.011343   0.000128  -0.001109
     2  H    0.003509  -0.000593   0.002139   0.000350   0.000095  -0.000035
     3  H   -0.001895   0.001654   0.001326  -0.000154  -0.000007  -0.000021
     4  H   -0.005196   0.008648  -0.000096  -0.000912  -0.000007   0.000026
     5  C    0.400169   0.136890  -0.038467  -0.002223   0.000975  -0.001225
     6  H   -0.010576  -0.054355   0.004297  -0.001799  -0.000721   0.000019
     7  H    0.426095  -0.030322  -0.001282  -0.004232   0.000781  -0.000106
     8  C   -0.030322   5.848470   0.398264   0.052344  -0.011804  -0.013546
     9  H   -0.001282   0.398264   0.456302  -0.049813   0.005635  -0.007663
    10  N   -0.004232   0.052344  -0.049813   6.791528   0.329605   0.336910
    11  H    0.000781  -0.011804   0.005635   0.329605   0.485621  -0.039852
    12  H   -0.000106  -0.013546  -0.007663   0.336910  -0.039852   0.487896
          Atomic-Atomic Spin Densities.
               1          2          3          4          5          6
     1  C    0.038556   0.000009  -0.002251  -0.001202   0.002173  -0.001986
     2  H    0.000009  -0.019683   0.001054   0.003536   0.001145  -0.000036
     3  H   -0.002251   0.001054  -0.003910   0.000845  -0.002685  -0.000003
     4  H   -0.001202   0.003536   0.000845  -0.007301   0.001581  -0.000345
     5  C    0.002173   0.001145  -0.002685   0.001581  -0.016566   0.015860
     6  H   -0.001986  -0.000036  -0.000003  -0.000345   0.015860   0.026162
     7  H    0.004196  -0.000108   0.000269   0.000201   0.009483  -0.002074
     8  C    0.004511  -0.001680   0.002780   0.000172  -0.124597  -0.022878
     9  H   -0.000966  -0.000628   0.000104   0.000066   0.007703   0.000892
    10  N    0.000674   0.000295  -0.000416   0.000014   0.021783  -0.000067
    11  H   -0.000756  -0.000036   0.000004   0.000008   0.006161   0.001212
    12  H   -0.000357  -0.000016   0.000001   0.000000   0.002242   0.000169
               7          8          9         10         11         12
     1  C    0.004196   0.004511  -0.000966   0.000674  -0.000756  -0.000357
     2  H   -0.000108  -0.001680  -0.000628   0.000295  -0.000036  -0.000016
     3  H    0.000269   0.002780   0.000104  -0.000416   0.000004   0.000001
     4  H    0.000201   0.000172   0.000066   0.000014   0.000008   0.000000
     5  C    0.009483  -0.124597   0.007703   0.021783   0.006161   0.002242
     6  H   -0.002074  -0.022878   0.000892  -0.000067   0.001212   0.000169
     7  H    0.031433  -0.013010  -0.001102   0.006584  -0.000589  -0.000247
     8  C   -0.013010   1.328184  -0.016303  -0.198112  -0.015787  -0.019825
     9  H   -0.001102  -0.016303  -0.043343  -0.000615   0.000150   0.001749
    10  N    0.006584  -0.198112  -0.000615   0.301110   0.000002   0.003519
    11  H   -0.000589  -0.015787   0.000150   0.000002   0.007261   0.003637
    12  H   -0.000247  -0.019825   0.001749   0.003519   0.003637   0.005882
 Mulliken charges and spin densities:
               1          2
     1  C   -0.675139   0.042600
     2  H    0.206831  -0.016147
     3  H    0.211619  -0.004209
     4  H    0.215371  -0.002423
     5  C   -0.387999  -0.075716
     6  H    0.244274   0.016908
     7  H    0.247115   0.035036
     8  C   -0.295549   0.923454
     9  H    0.228166  -0.052292
    10  N   -0.462946   0.134770
    11  H    0.229550   0.001265
    12  H    0.238706  -0.003246
 Sum of Mulliken charges =  -0.00000   1.00000
 Mulliken charges and spin densities with hydrogens summed into heavy atoms:
               1          2
     1  C   -0.041317   0.019821
     5  C    0.103390  -0.023773
     8  C   -0.067383   0.871162
    10  N    0.005310   0.132789
 APT charges:
               1
     1  C    0.073501
     2  H   -0.010896
     3  H   -0.017846
     4  H   -0.020652
     5  C    0.133235
     6  H   -0.047776
     7  H   -0.074089
     8  C    0.187109
     9  H    0.003921
    10  N   -0.575198
    11  H    0.169592
    12  H    0.179098
 Sum of APT charges =  -0.00000
 APT charges with hydrogens summed into heavy atoms:
               1
     1  C    0.024107
     5  C    0.011371
     8  C    0.191030
    10  N   -0.226508
 Electronic spatial extent (au):  <R**2>=            385.0400
 Charge=              0.0000 electrons
 Dipole moment (field-independent basis, Debye):
    X=              0.6490    Y=              0.1954    Z=             -0.5614  Tot=              0.8801
 Quadrupole moment (field-independent basis, Debye-Ang):
   XX=            -24.3609   YY=            -25.8557   ZZ=            -28.8039
   XY=             -0.7017   XZ=             -2.4386   YZ=             -1.5848
 Traceless Quadrupole moment (field-independent basis, Debye-Ang):
   XX=              1.9792   YY=              0.4845   ZZ=             -2.4637
   XY=             -0.7017   XZ=             -2.4386   YZ=             -1.5848
 Octapole moment (field-independent basis, Debye-Ang**2):
  XXX=             16.0544  YYY=              0.7559  ZZZ=             -0.0521  XYY=              4.5797
  XXY=             -1.7732  XXZ=             -6.0671  XZZ=             -0.8932  YZZ=              1.0294
  YYZ=             -0.0245  XYZ=             -1.7121
 Hexadecapole moment (field-independent basis, Debye-Ang**3):
 XXXX=           -366.7410 YYYY=            -79.3147 ZZZZ=            -51.3764 XXXY=            -12.8588
 XXXZ=            -16.9982 YYYX=              0.6016 YYYZ=             -4.8787 ZZZX=             -1.4048
 ZZZY=             -1.6029 XXYY=            -71.8289 XXZZ=            -79.2391 YYZZ=            -21.8350
 XXYZ=             -3.4818 YYXZ=             -2.5062 ZZXY=              1.3818
 N-N= 1.238446926069D+02 E-N=-6.508857809548D+02  KE= 1.727570377532D+02
  Exact polarizability:      60.690       1.770      47.895       0.404       1.706      43.878
 Approx polarizability:      58.418       1.114      55.474      -0.090       0.861      51.682
                          Isotropic Fermi Contact Couplings
        Atom                 a.u.       MegaHertz       Gauss      10(-4) cm-1
     1  C(13)              0.00867       9.75150       3.47958       3.25275
     2  H(1)              -0.00022      -0.97175      -0.34675      -0.32414
     3  H(1)              -0.00027      -1.20705      -0.43071      -0.40263
     4  H(1)              -0.00027      -1.22846      -0.43835      -0.40977
     5  C(13)             -0.01656     -18.61167      -6.64111      -6.20819
     6  H(1)               0.00774      34.60127      12.34659      11.54174
     7  H(1)               0.02026      90.54674      32.30933      30.20314
     8  C(13)              0.19639     220.78014      78.77984      73.64433
     9  H(1)              -0.00843     -37.67562     -13.44360     -12.56723
    10  N(14)              0.03749      12.11362       4.32244       4.04067
    11  H(1)               0.00214       9.57477       3.41652       3.19380
    12  H(1)               0.00134       5.98057       2.13402       1.99490
 --------------------------------------------------------
       Center         ----  Spin Dipole Couplings  ----
                      3XX-RR        3YY-RR        3ZZ-RR
 --------------------------------------------------------
     1   Atom        0.013125     -0.008592     -0.004532
     2   Atom        0.010743     -0.006300     -0.004443
     3   Atom        0.008472     -0.004738     -0.003734
     4   Atom        0.005390     -0.002664     -0.002725
     5   Atom        0.006010      0.003564     -0.009573
     6   Atom       -0.002523      0.010962     -0.008439
     7   Atom        0.000774      0.001525     -0.002299
     8   Atom       -0.469053     -0.411126      0.880180
     9   Atom       -0.060939      0.053390      0.007549
    10   Atom       -0.197178     -0.173624      0.370802
    11   Atom       -0.015662      0.021511     -0.005849
    12   Atom        0.019852     -0.007079     -0.012773
 --------------------------------------------------------
                        XY            XZ            YZ
 --------------------------------------------------------
     1   Atom       -0.001297     -0.005336      0.000107
     2   Atom        0.000026      0.004879      0.001443
     3   Atom        0.002866     -0.004004     -0.000643
     4   Atom       -0.002445     -0.000245      0.000395
     5   Atom       -0.014564     -0.005653      0.004733
     6   Atom       -0.011264      0.003375     -0.003733
     7   Atom       -0.008848     -0.005032      0.007983
     8   Atom        0.028288      0.136786      0.287983
     9   Atom        0.010551      0.000607     -0.027111
    10   Atom        0.047302      0.162124      0.191786
    11   Atom        0.015065     -0.002658     -0.013588
    12   Atom       -0.022125     -0.000860      0.004991
 --------------------------------------------------------


 ---------------------------------------------------------------------------------
              Anisotropic Spin Dipole Couplings in Principal Axis System
 ---------------------------------------------------------------------------------

       Atom             a.u.   MegaHertz   Gauss  10(-4) cm-1        Axes

              Baa    -0.0087    -1.165    -0.416    -0.389  0.0771  0.9943  0.0734
     1 C(13)  Bbb    -0.0060    -0.805    -0.287    -0.268  0.2619 -0.0912  0.9608
              Bcc     0.0147     1.970     0.703     0.657  0.9620 -0.0548 -0.2674
 
              Baa    -0.0075    -3.995    -1.425    -1.332  0.1670  0.7600 -0.6281
     2 H(1)   Bbb    -0.0047    -2.507    -0.895    -0.836 -0.2301  0.6495  0.7247
              Bcc     0.0122     6.502     2.320     2.169  0.9587  0.0235  0.2833
 
              Baa    -0.0054    -2.880    -1.028    -0.961 -0.2808  0.9024 -0.3269
     3 H(1)   Bbb    -0.0048    -2.585    -0.922    -0.862  0.1885  0.3858  0.9031
              Bcc     0.0102     5.464     1.950     1.823  0.9411  0.1920 -0.2785
 
              Baa    -0.0035    -1.858    -0.663    -0.620  0.2347  0.8905 -0.3897
     4 H(1)   Bbb    -0.0026    -1.390    -0.496    -0.464  0.1400  0.3657  0.9201
              Bcc     0.0061     3.248     1.159     1.083  0.9619 -0.2705 -0.0388
 
              Baa    -0.0114    -1.531    -0.546    -0.511  0.3071 -0.0021  0.9517
     5 C(13)  Bbb    -0.0098    -1.309    -0.467    -0.437  0.6251  0.7545 -0.2001
              Bcc     0.0212     2.840     1.013     0.947  0.7176 -0.6563 -0.2330
 
              Baa    -0.0102    -5.455    -1.947    -1.820 -0.6180 -0.1943  0.7617
     6 H(1)   Bbb    -0.0080    -4.283    -1.528    -1.429  0.6137  0.4863  0.6220
              Bcc     0.0183     9.739     3.475     3.248 -0.4913  0.8519 -0.1813
 
              Baa    -0.0092    -4.898    -1.748    -1.634  0.3493  0.7283 -0.5895
     7 H(1)   Bbb    -0.0058    -3.102    -1.107    -1.035  0.7360  0.1761  0.6537
              Bcc     0.0150     8.000     2.855     2.669 -0.5800  0.6622  0.4745
 
              Baa    -0.4828   -64.789   -23.118   -21.611  0.9922  0.0561 -0.1114
     8 C(13)  Bbb    -0.4724   -63.388   -22.619   -21.144 -0.0777  0.9767 -0.2001
              Bcc     0.9552   128.178    45.737    42.755  0.0976  0.2072  0.9734
 
              Baa    -0.0621   -33.109   -11.814   -11.044  0.9936 -0.1022 -0.0485
     9 H(1)   Bbb    -0.0046    -2.454    -0.876    -0.819  0.0864  0.4090  0.9084
              Bcc     0.0667    35.563    12.690    11.863  0.0730  0.9068 -0.4152
 
              Baa    -0.2416    -9.319    -3.325    -3.108  0.8598  0.3761 -0.3454
    10 N(14)  Bbb    -0.2324    -8.964    -3.199    -2.990 -0.4486  0.8795 -0.1590
              Bcc     0.4740    18.283     6.524     6.099  0.2439  0.2917  0.9249
 
              Baa    -0.0214   -11.395    -4.066    -3.801  0.9110 -0.3747 -0.1722
    11 H(1)   Bbb    -0.0105    -5.592    -1.995    -1.865  0.2815  0.2598  0.9237
              Bcc     0.0318    16.987     6.061     5.666  0.3014  0.8900 -0.3422
 
              Baa    -0.0214   -11.393    -4.065    -3.800  0.4216  0.8016 -0.4239
    12 H(1)   Bbb    -0.0112    -5.954    -2.125    -1.986  0.2659  0.3376  0.9029
              Bcc     0.0325    17.348     6.190     5.787  0.8669 -0.4934 -0.0708
 

 ---------------------------------------------------------------------------------

 No NMR shielding tensors so no spin-rotation constants.
 Leave Link  601 at Fri Jul  9 10:55:26 2021, MaxMem=   104857600 cpu:               0.5 elap:               0.5
 (Enter /opt/gaussian/g16/l701.exe)
 ... and contract with generalized density number  0.
 Compute integral second derivatives.
 Leave Link  701 at Fri Jul  9 10:55:26 2021, MaxMem=   104857600 cpu:               0.5 elap:               0.5
 (Enter /opt/gaussian/g16/l702.exe)
 L702 exits ... SP integral derivatives will be done elsewhere.
 Leave Link  702 at Fri Jul  9 10:55:26 2021, MaxMem=   104857600 cpu:               0.1 elap:               0.1
 (Enter /opt/gaussian/g16/l703.exe)
 Integral derivatives from FoFJK, PRISM(SPDF).
 Compute integral second derivatives, UseDBF=F ICtDFT=           0.
 Calling FoFJK, ICntrl=    100127 FMM=F ISym2X=0 I1Cent= 0 IOpClX= 1 NMat=1 NMatS=1 NMatT=0.
 FoFJK:  IHMeth= 1 ICntrl=  100127 DoSepK=F KAlg= 0 I1Cent=           0 FoldK=F
 IRaf=         0 NMat=       1 IRICut=       1 DoRegI=T DoRafI=F ISym2E= 0 IDoP0=0 IntGTp=1.
 FoFCou: FMM=F IPFlag=           0 FMFlag=      100000 FMFlg1=         800
         NFxFlg=           0 DoJE=F BraDBF=F KetDBF=F FulRan=T
         wScrn=  0.000000 ICntrl=    100127 IOpCl=  1 I1Cent=           0 NGrid=           0
         NMat0=    1 NMatS0=      1 NMatT0=    0 NMatD0=    1 NMtDS0=    0 NMtDT0=    0
 Symmetry not used in FoFCou.
 Leave Link  703 at Fri Jul  9 11:13:45 2021, MaxMem=   104857600 cpu:            1099.3 elap:            1099.2
 (Enter /opt/gaussian/g16/l716.exe)
 Dipole        = 2.55352657D-01 7.68624717D-02-2.20854799D-01
 Polarizability= 6.06896597D+01 1.77027916D+00 4.78954358D+01
                 4.04444651D-01 1.70563531D+00 4.38782067D+01
 Full mass-weighted force constant matrix:
 Low frequencies ---  -24.1446   -6.8418   -0.0009   -0.0008    0.0004    8.0515
 Low frequencies ---   97.0608  231.3760  270.4648
 Diagonal vibrational polarizability:
        9.4152563       9.1851145      11.3752283
 Harmonic frequencies (cm**-1), IR intensities (KM/Mole), Raman scattering
 activities (A**4/AMU), depolarization ratios for plane and unpolarized
 incident light, reduced masses (AMU), force constants (mDyne/A),
 and normal coordinates:
                      1                      2                      3
                      A                      A                      A
 Frequencies --     96.8119               231.3727               270.4642
 Red. masses --      2.2354                 1.0751                 2.4493
 Frc consts  --      0.0123                 0.0339                 0.1056
 IR Inten    --      1.1803                 1.4558                 1.7890
  Atom  AN      X      Y      Z        X      Y      Z        X      Y      Z
     1   6     0.02   0.02  -0.14     0.00  -0.01   0.02     0.10  -0.13  -0.02
     2   1     0.13   0.20  -0.22    -0.25   0.40  -0.14     0.32  -0.20   0.00
     3   1    -0.07  -0.12  -0.30     0.29  -0.33  -0.28     0.27  -0.14   0.01
     4   1     0.00  -0.00  -0.10    -0.04  -0.15   0.56    -0.12  -0.36  -0.12
     5   6    -0.01  -0.02   0.14    -0.00   0.02  -0.06    -0.06   0.18   0.05
     6   1     0.11   0.04   0.24    -0.03  -0.02  -0.11    -0.16   0.20   0.06
     7   1    -0.15  -0.11   0.19     0.02   0.08  -0.09    -0.17   0.15   0.07
     8   6     0.00  -0.02   0.20    -0.00   0.01   0.01    -0.08   0.17   0.02
     9   1     0.10   0.09   0.50    -0.03   0.06   0.12    -0.25   0.11  -0.18
    10   7    -0.01   0.02  -0.16     0.00  -0.01   0.02     0.04  -0.14  -0.03
    11   1    -0.11  -0.15  -0.47     0.07  -0.11  -0.13     0.24  -0.11   0.07
    12   1    -0.03  -0.03  -0.06     0.01  -0.07   0.22    -0.17  -0.33  -0.19
                      4                      5                      6
                      A                      A                      A
 Frequencies --    322.2294               455.7867               582.6921
 Red. masses --      1.1525                 3.1984                 1.1813
 Frc consts  --      0.0705                 0.3915                 0.2363
 IR Inten    --     23.6898                11.2982                54.9870
  Atom  AN      X      Y      Z        X      Y      Z        X      Y      Z
     1   6    -0.01  -0.01   0.01    -0.24  -0.01  -0.01    -0.03  -0.01   0.00
     2   1     0.06  -0.10   0.05    -0.40   0.04  -0.02    -0.03  -0.05   0.02
     3   1    -0.07   0.07   0.08    -0.39   0.02  -0.01    -0.01   0.02   0.03
     4   1    -0.01   0.02  -0.12    -0.08   0.17   0.04    -0.04  -0.02  -0.01
     5   6    -0.01  -0.00   0.04    -0.12  -0.08  -0.02    -0.02   0.02  -0.01
     6   1    -0.05   0.10   0.15    -0.22  -0.06  -0.01    -0.07   0.14   0.13
     7   1     0.03  -0.15   0.11    -0.26  -0.03  -0.04     0.02  -0.19   0.09
     8   6     0.00   0.02  -0.10     0.13   0.13   0.08     0.01  -0.00  -0.11
     9   1     0.01   0.04  -0.06     0.17   0.01  -0.22     0.03   0.35   0.81
    10   7     0.00   0.03   0.01     0.26  -0.03  -0.00     0.03  -0.03   0.01
    11   1     0.23  -0.30  -0.49     0.39  -0.06  -0.03     0.11   0.12   0.28
    12   1     0.04  -0.15   0.68     0.02  -0.22  -0.24     0.04   0.01  -0.04
                      7                      8                      9
                      A                      A                      A
 Frequencies --    673.7801               794.7313               890.3948
 Red. masses --      1.2905                 1.1795                 1.8260
 Frc consts  --      0.3452                 0.4389                 0.8529
 IR Inten    --    181.9112                 3.1952                 1.0896
  Atom  AN      X      Y      Z        X      Y      Z        X      Y      Z
     1   6    -0.01  -0.00  -0.00    -0.01  -0.01   0.04     0.14  -0.03   0.01
     2   1     0.02   0.03  -0.02     0.37   0.25  -0.10    -0.14   0.14  -0.04
     3   1    -0.05  -0.02  -0.03    -0.32  -0.19  -0.24    -0.28   0.04   0.01
     4   1    -0.01   0.01  -0.01    -0.04   0.00  -0.20     0.55   0.43   0.08
     5   6    -0.01   0.00   0.02    -0.01   0.00   0.09     0.02  -0.15  -0.02
     6   1    -0.02  -0.08  -0.07    -0.21  -0.32  -0.32    -0.19  -0.13  -0.04
     7   1    -0.06   0.13  -0.03     0.26   0.43  -0.13    -0.09  -0.09  -0.04
     8   6     0.02   0.01   0.05     0.00  -0.01  -0.07    -0.05   0.15   0.01
     9   1     0.07  -0.04  -0.09     0.06   0.04   0.11    -0.03   0.17   0.07
    10   7    -0.03  -0.04  -0.13     0.02   0.01   0.02    -0.08   0.00  -0.01
    11   1     0.23   0.29   0.55     0.03  -0.03  -0.05     0.22   0.01   0.09
    12   1     0.29   0.11   0.62    -0.03  -0.02  -0.06    -0.30  -0.24  -0.04
                     10                     11                     12
                      A                      A                      A
 Frequencies --   1034.4260              1063.9223              1087.2894
 Red. masses --      1.2053                 2.2771                 1.6120
 Frc consts  --      0.7599                 1.5187                 1.1228
 IR Inten    --      3.0803                 0.7019                 0.3623
  Atom  AN      X      Y      Z        X      Y      Z        X      Y      Z
     1   6    -0.06   0.04  -0.02    -0.15  -0.14   0.01     0.02   0.09   0.10
     2   1     0.06  -0.13   0.04    -0.14   0.03  -0.07     0.55   0.18   0.02
     3   1     0.25   0.01   0.02    -0.47  -0.19  -0.12     0.06  -0.14  -0.15
     4   1    -0.27  -0.22   0.00    -0.05   0.01  -0.12    -0.20  -0.13  -0.21
     5   6     0.05  -0.06   0.02     0.23   0.06  -0.05    -0.07  -0.08  -0.14
     6   1     0.42  -0.17  -0.04     0.16   0.23   0.13    -0.28   0.19   0.14
     7   1     0.15   0.04  -0.03     0.58  -0.15   0.07     0.34  -0.45   0.03
     8   6    -0.01   0.04  -0.01     0.01   0.09   0.05    -0.00   0.01   0.08
     9   1     0.34   0.01   0.02    -0.30   0.09  -0.05    -0.05  -0.03  -0.06
    10   7    -0.05   0.04  -0.00    -0.06  -0.01  -0.01     0.01   0.01  -0.01
    11   1     0.40   0.04   0.11    -0.11   0.00   0.01     0.07   0.03   0.06
    12   1    -0.38  -0.32  -0.07    -0.04   0.00   0.02    -0.03  -0.04   0.00
                     13                     14                     15
                      A                      A                      A
 Frequencies --   1210.6233              1254.4521              1278.0653
 Red. masses --      1.6085                 2.3347                 1.2082
 Frc consts  --      1.3890                 2.1646                 1.1628
 IR Inten    --      6.1279                27.6282                 2.8204
  Atom  AN      X      Y      Z        X      Y      Z        X      Y      Z
     1   6     0.01  -0.05   0.04    -0.04   0.08  -0.04     0.02  -0.00  -0.10
     2   1    -0.03   0.14  -0.04     0.04  -0.16   0.06    -0.26  -0.16  -0.01
     3   1    -0.24  -0.06  -0.04     0.26   0.06   0.01     0.14   0.18   0.13
     4   1     0.12   0.10  -0.07    -0.20  -0.14   0.06     0.05   0.00   0.16
     5   6    -0.02   0.14  -0.05     0.05  -0.08   0.03    -0.03   0.02   0.05
     6   1    -0.20   0.28   0.08    -0.48  -0.05  -0.04    -0.53   0.01  -0.05
     7   1    -0.18  -0.04   0.04    -0.06   0.09  -0.04     0.69  -0.02   0.05
     8   6     0.10  -0.09   0.01     0.20   0.16  -0.02    -0.02  -0.04   0.04
     9   1     0.72  -0.17  -0.04     0.22   0.18   0.01     0.05  -0.07  -0.02
    10   7    -0.09  -0.01   0.01    -0.13  -0.13   0.02     0.01   0.02  -0.01
    11   1     0.11  -0.02   0.03    -0.59  -0.13  -0.09     0.13   0.03   0.04
    12   1    -0.26  -0.19  -0.05     0.06   0.09   0.05    -0.07  -0.06  -0.02
                     16                     17                     18
                      A                      A                      A
 Frequencies --   1347.5777              1412.1041              1458.5192
 Red. masses --      1.3762                 1.2731                 1.8693
 Frc consts  --      1.4725                 1.4958                 2.3429
 IR Inten    --      3.9423                 2.8194                16.4874
  Atom  AN      X      Y      Z        X      Y      Z        X      Y      Z
     1   6     0.01  -0.05  -0.00    -0.13  -0.06  -0.02     0.02  -0.03  -0.01
     2   1     0.04   0.10  -0.06     0.54   0.14  -0.13     0.03   0.17  -0.08
     3   1     0.02   0.04   0.09     0.50   0.07   0.23    -0.06   0.14   0.16
     4   1     0.19   0.16   0.03     0.33   0.43   0.14     0.03  -0.02   0.05
     5   6    -0.14   0.01  -0.01     0.04   0.01   0.00    -0.14   0.00   0.01
     6   1     0.55  -0.04   0.04    -0.10   0.02  -0.01     0.33   0.08   0.16
     7   1     0.48  -0.04   0.00    -0.08   0.01   0.00     0.18   0.20  -0.09
     8   6    -0.02   0.08  -0.00    -0.00  -0.02   0.00     0.23  -0.04  -0.01
     9   1     0.43   0.03  -0.02    -0.04  -0.02   0.00    -0.69   0.05   0.01
    10   7     0.01  -0.07   0.01     0.00   0.01  -0.00    -0.06   0.02  -0.02
    11   1    -0.27  -0.06  -0.05     0.04   0.01   0.00     0.04   0.05   0.06
    12   1     0.21   0.17   0.02    -0.03  -0.03  -0.00    -0.28  -0.22   0.01
                     19                     20                     21
                      A                      A                      A
 Frequencies --   1487.7818              1500.1187              1511.0808
 Red. masses --      1.0784                 1.0394                 1.0965
 Frc consts  --      1.4064                 1.3781                 1.4752
 IR Inten    --      0.2802                 7.2053                 6.4072
  Atom  AN      X      Y      Z        X      Y      Z        X      Y      Z
     1   6    -0.01   0.02  -0.00     0.00   0.02  -0.05     0.02  -0.04  -0.02
     2   1     0.03  -0.22   0.09     0.44  -0.27   0.07     0.03   0.52  -0.24
     3   1     0.02  -0.14  -0.17    -0.46   0.11  -0.00    -0.14   0.42   0.45
     4   1     0.08   0.09   0.05    -0.01  -0.12   0.69    -0.24  -0.32   0.02
     5   6    -0.00  -0.07  -0.02    -0.00   0.01  -0.02     0.04  -0.05  -0.01
     6   1    -0.03   0.43   0.51     0.05  -0.01  -0.04    -0.09   0.13   0.16
     7   1     0.08   0.57  -0.29    -0.04  -0.07   0.02    -0.05   0.17  -0.10
     8   6    -0.03  -0.01  -0.00    -0.00   0.00   0.00    -0.04   0.01   0.00
     9   1     0.08  -0.02   0.02     0.02  -0.00  -0.01     0.11  -0.00   0.01
    10   7     0.01   0.00   0.00    -0.00  -0.00   0.00     0.01  -0.00   0.00
    11   1     0.03  -0.00   0.00     0.00  -0.00  -0.00    -0.00  -0.01  -0.01
    12   1     0.03   0.03  -0.01     0.01   0.01  -0.00     0.05   0.04  -0.00
                     22                     23                     24
                      A                      A                      A
 Frequencies --   1639.5162              2977.8102              3030.5352
 Red. masses --      1.1464                 1.0707                 1.0870
 Frc consts  --      1.8156                 5.5937                 5.8818
 IR Inten    --     53.4263                47.6497                25.1010
  Atom  AN      X      Y      Z        X      Y      Z        X      Y      Z
     1   6    -0.00   0.00  -0.00    -0.00   0.00   0.00    -0.00   0.01  -0.01
     2   1     0.00   0.00  -0.00     0.00  -0.01  -0.04    -0.00   0.02   0.04
     3   1     0.01   0.00   0.00     0.00   0.01  -0.01    -0.01  -0.07   0.06
     4   1    -0.00  -0.00  -0.00     0.02  -0.02  -0.00     0.01  -0.01  -0.01
     5   6    -0.01  -0.00   0.00    -0.00  -0.04  -0.06    -0.01  -0.05   0.06
     6   1    -0.00  -0.01  -0.00     0.02   0.11  -0.13     0.11   0.73  -0.64
     7   1     0.00  -0.01   0.00     0.01   0.40   0.89    -0.00  -0.08  -0.13
     8   6     0.03   0.01   0.01     0.00  -0.00  -0.00    -0.00   0.00  -0.00
     9   1    -0.06   0.02  -0.00     0.00  -0.01   0.00    -0.00  -0.03   0.02
    10   7    -0.09  -0.03   0.02     0.00   0.00   0.00     0.00  -0.00   0.00
    11   1     0.66  -0.21  -0.15     0.00  -0.00  -0.00     0.01   0.00  -0.00
    12   1     0.33   0.53  -0.30     0.00   0.00  -0.00     0.00   0.00  -0.00
                     25                     26                     27
                      A                      A                      A
 Frequencies --   3063.1615              3128.8718              3139.5460
 Red. masses --      1.0354                 1.1021                 1.1023
 Frc consts  --      5.7239                 6.3566                 6.4018
 IR Inten    --     25.8127                27.1375                24.1969
  Atom  AN      X      Y      Z        X      Y      Z        X      Y      Z
     1   6    -0.04  -0.03  -0.00    -0.01   0.04  -0.08    -0.05   0.07   0.04
     2   1     0.02   0.22   0.53     0.03   0.25   0.56    -0.03  -0.19  -0.49
     3   1     0.07   0.47  -0.42    -0.10  -0.55   0.48    -0.03  -0.12   0.13
     4   1     0.37  -0.34  -0.06     0.18  -0.15  -0.04     0.62  -0.54  -0.09
     5   6     0.00  -0.00   0.00     0.00   0.00  -0.01     0.00   0.00   0.00
     6   1     0.00   0.02  -0.02    -0.01  -0.07   0.06    -0.00  -0.01   0.01
     7   1    -0.00  -0.00  -0.00     0.00   0.02   0.04    -0.00  -0.02  -0.03
     8   6     0.00   0.00  -0.00    -0.00  -0.00   0.00     0.00  -0.00   0.00
     9   1    -0.00  -0.01   0.00     0.00   0.02  -0.01     0.00   0.01  -0.00
    10   7    -0.00   0.00  -0.00     0.00   0.00   0.00    -0.00  -0.00  -0.00
    11   1     0.00   0.00  -0.00    -0.00  -0.00   0.00    -0.00  -0.00   0.00
    12   1    -0.00  -0.00   0.00    -0.00  -0.00  -0.00    -0.00   0.00   0.00
                     28                     29                     30
                      A                      A                      A
 Frequencies --   3186.7022              3557.4170              3665.3034
 Red. masses --      1.0881                 1.0482                 1.0972
 Frc consts  --      6.5106                 7.8160                 8.6846
 IR Inten    --     17.9815                 9.4939                19.3241
  Atom  AN      X      Y      Z        X      Y      Z        X      Y      Z
     1   6     0.00  -0.00   0.00     0.00   0.00  -0.00    -0.00   0.00   0.00
     2   1     0.00   0.00   0.00    -0.00  -0.00  -0.00    -0.00  -0.00  -0.00
     3   1     0.01   0.01  -0.01     0.00  -0.00   0.00    -0.00   0.00  -0.00
     4   1    -0.01   0.01   0.00     0.00  -0.00  -0.00     0.00  -0.00  -0.00
     5   6    -0.00  -0.00   0.00     0.00   0.00  -0.00     0.00  -0.00   0.00
     6   1     0.00   0.03  -0.02    -0.00  -0.00   0.00     0.00   0.00  -0.00
     7   1    -0.00   0.00   0.00     0.00  -0.00   0.00     0.00   0.00  -0.00
     8   6    -0.01  -0.08   0.03     0.00  -0.00   0.00     0.00   0.00  -0.00
     9   1     0.09   0.93  -0.35     0.00   0.01  -0.00    -0.00  -0.01   0.00
    10   7     0.00   0.00   0.00    -0.04  -0.02   0.03    -0.04   0.07  -0.01
    11   1     0.00  -0.01   0.01     0.08   0.69  -0.38    -0.08  -0.51   0.30
    12   1    -0.00  -0.01  -0.00     0.44  -0.40  -0.11     0.58  -0.52  -0.17

 -------------------
 - Thermochemistry -
 -------------------
 Temperature   298.150 Kelvin.  Pressure   1.00000 Atm.
 Atom     1 has atomic number  6 and mass  12.00000
 Atom     2 has atomic number  1 and mass   1.00783
 Atom     3 has atomic number  1 and mass   1.00783
 Atom     4 has atomic number  1 and mass   1.00783
 Atom     5 has atomic number  6 and mass  12.00000
 Atom     6 has atomic number  1 and mass   1.00783
 Atom     7 has atomic number  1 and mass   1.00783
 Atom     8 has atomic number  6 and mass  12.00000
 Atom     9 has atomic number  1 and mass   1.00783
 Atom    10 has atomic number  7 and mass  14.00307
 Atom    11 has atomic number  1 and mass   1.00783
 Atom    12 has atomic number  1 and mass   1.00783
 Molecular mass:    58.06567 amu.
 Principal axes and moments of inertia in atomic units:
                           1         2         3
     Eigenvalues --    62.61728 468.85158 503.45059
           X            0.99997   0.00215  -0.00699
           Y           -0.00253   0.99849  -0.05490
           Z            0.00686   0.05492   0.99847
 This molecule is an asymmetric top.
 Rotational symmetry number  1.
 Rotational temperatures (Kelvin)      1.38323     0.18474     0.17204
 Rotational constants (GHZ):          28.82178     3.84928     3.58474
 Zero-point vibrational energy     283234.4 (Joules/Mol)
                                   67.69464 (Kcal/Mol)
 Warning -- explicit consideration of   6 degrees of freedom as
           vibrations may cause significant error
 Vibrational temperatures:    139.29   332.89   389.14   463.62   655.78
          (Kelvin)            838.36   969.42  1143.44  1281.08  1488.31
                             1530.75  1564.37  1741.82  1804.88  1838.85
                             1938.86  2031.70  2098.48  2140.59  2158.34
                             2174.11  2358.90  4284.40  4360.26  4407.21
                             4501.75  4517.11  4584.95  5118.33  5273.55
 
 Zero-point correction=                           0.107878 (Hartree/Particle)
 Thermal correction to Energy=                    0.113673
 Thermal correction to Enthalpy=                  0.114617
 Thermal correction to Gibbs Free Energy=         0.079300
 Sum of electronic and zero-point Energies=           -173.700360
 Sum of electronic and thermal Energies=              -173.694565
 Sum of electronic and thermal Enthalpies=            -173.693621
 Sum of electronic and thermal Free Energies=         -173.728938
 
                     E (Thermal)             CV                S
                      KCal/Mol        Cal/Mol-Kelvin    Cal/Mol-Kelvin
 Total                   71.331             19.594             74.330
 Electronic               0.000              0.000              1.377
 Translational            0.889              2.981             38.098
 Rotational               0.889              2.981             24.206
 Vibrational             69.553             13.632             10.649
 Vibration     1          0.603              1.951              3.518
 Vibration     2          0.653              1.793              1.868
 Vibration     3          0.674              1.728              1.593
 Vibration     4          0.707              1.631              1.299
 Vibration     5          0.814              1.348              0.778
 Vibration     6          0.940              1.069              0.480
                       Q            Log10(Q)             Ln(Q)
 Total Bot       0.334453D-36        -36.475665        -83.988322
 Total V=0       0.139589D+14         13.144851         30.267138
 Vib (Bot)       0.220945D-48        -48.655717       -112.033928
 Vib (Bot)    1  0.212114D+01          0.326570          0.751956
 Vib (Bot)    2  0.850747D+00         -0.070200         -0.161641
 Vib (Bot)    3  0.714385D+00         -0.146068         -0.336334
 Vib (Bot)    4  0.582601D+00         -0.234629         -0.540253
 Vib (Bot)    5  0.374472D+00         -0.426581         -0.982239
 Vib (Bot)    6  0.260808D+00         -0.583679         -1.343970
 Vib (V=0)       0.922145D+01          0.964799          2.221532
 Vib (V=0)    1  0.267928D+01          0.428018          0.985547
 Vib (V=0)    2  0.148680D+01          0.172252          0.396625
 Vib (V=0)    3  0.137198D+01          0.137347          0.316253
 Vib (V=0)    4  0.126774D+01          0.103030          0.237235
 Vib (V=0)    5  0.112468D+01          0.051030          0.117501
 Vib (V=0)    6  0.106393D+01          0.026914          0.061973
 Electronic      0.200000D+01          0.301030          0.693147
 Translational   0.173913D+08          7.240333         16.671483
 Rotational      0.435200D+05          4.638689         10.680976
 
                                                        Generated by Multiwfn
                                                             IR Spectrum
 
     3   3            333 33 2                                              1  1111 1 1 11 1   111                                   
     6   5            111 00 9                                              6  5544 4 3 22 2   000    8  7   6  5    4   3 22        
[...]
     34  0.112021D-03 -0.241221D-01 -0.248188D-01  0.584738D-02  0.121658D-02
     35 -0.619194D-04  0.135309D-01  0.134494D-01 -0.141999D-02 -0.127290D-03
     36 -0.256572D-04 -0.797327D-02 -0.156304D-02 -0.246350D-02  0.136008D-03
               26            27            28            29            30 
     26  0.312220D+00
     27  0.114173D+00  0.533905D-01
     28  0.593387D-03 -0.187843D-04  0.663395D+00
     29 -0.856682D-02  0.412067D-02  0.694037D-01  0.701673D+00
     30 -0.602067D-02  0.256610D-02 -0.111843D+00  0.153087D+00  0.172466D+00
     31  0.147169D-02  0.474874D-03 -0.663217D-01  0.252435D-01  0.278057D-01
     32  0.175350D-02 -0.953241D-03  0.236897D-01 -0.326275D+00 -0.168249D+00
     33  0.153374D-03  0.126948D-02  0.324884D-01 -0.206579D+00 -0.121603D+00
     34  0.641714D-03 -0.256662D-03 -0.254352D+00 -0.181496D+00  0.660021D-01
     35  0.210653D-03 -0.656568D-03 -0.188550D+00 -0.233224D+00  0.376489D-01
     36  0.659797D-03 -0.921842D-03  0.962528D-01  0.619940D-01 -0.346993D-01
               31            32            33            34            35 
     31  0.678535D-01
     32 -0.368125D-01  0.352918D+00
     33 -0.285523D-01  0.187450D+00  0.118525D+00
     34  0.524159D-02  0.598951D-02 -0.431520D-03  0.276366D+00
     35 -0.230983D-01 -0.161173D-01  0.123557D-01  0.195394D+00  0.235747D+00
     36 -0.165797D-01 -0.135068D-01  0.186241D-02 -0.719233D-01 -0.479387D-01
               36 
     36  0.340249D-01
 Leave Link  716 at Fri Jul  9 11:13:46 2021, MaxMem=   104857600 cpu:               0.1 elap:               0.1
 (Enter /opt/gaussian/g16/l103.exe)

 GradGradGradGradGradGradGradGradGradGradGradGradGradGradGradGradGradGrad
 Berny optimization.
 Search for a local minimum.
 Step number   1 out of a maximum of    2
 All quantities printed in internal units (Hartrees-Bohrs-Radians)
 Second derivative matrix not updated -- analytic derivatives used.
 ITU=  0
     Eigenvalues ---    0.00077   0.00234   0.00508   0.00677   0.01985
     Eigenvalues ---    0.02320   0.03141   0.04735   0.05035   0.06129
     Eigenvalues ---    0.07163   0.07941   0.09247   0.11151   0.12111
     Eigenvalues ---    0.12612   0.14454   0.17526   0.18574   0.26094
     Eigenvalues ---    0.38562   0.52634   0.63766   0.67722   0.76327
     Eigenvalues ---    0.78746   0.81654   0.88265   1.07211   1.10167
 Angle between quadratic step and forces=  77.69 degrees.
 Linear search not attempted -- first point.
 B after Tr=     0.000004   -0.000010    0.000015
         Rot=    1.000000   -0.000007    0.000000   -0.000002 Ang=  -0.00 deg.
 Variable       Old X    -DE/DX   Delta X   Delta X   Delta X     New X
                                 (Linear)    (Quad)   (Total)
    X1        3.55027  -0.00001   0.00000  -0.00004  -0.00003   3.55024
    Y1       -0.32404   0.00000   0.00000  -0.00001  -0.00001  -0.32405
    Z1        0.18009   0.00001   0.00000   0.00008   0.00009   0.18019
    X2        3.65617   0.00000   0.00000   0.00054   0.00055   3.65672
    Y2       -1.13162   0.00000   0.00000   0.00111   0.00109  -1.13053
    Z2        2.07183  -0.00000   0.00000   0.00052   0.00053   2.07235
    X3        3.82466   0.00000   0.00000  -0.00073  -0.00071   3.82395
    Y3       -1.85355  -0.00000   0.00000  -0.00088  -0.00086  -1.85441
    Z3       -1.17404  -0.00000   0.00000   0.00090   0.00089  -1.17315
    X4        5.10323   0.00000   0.00000   0.00011   0.00011   5.10333
    Y4        1.00723  -0.00000   0.00000  -0.00041  -0.00039   1.00683
    Z4       -0.04665  -0.00000   0.00000  -0.00130  -0.00127  -0.04793
    X5        1.00313  -0.00001   0.00000  -0.00001  -0.00001   1.00312
    Y5        0.95361  -0.00001   0.00000   0.00008   0.00008   0.95369
    Z5       -0.23928  -0.00000   0.00000   0.00014   0.00017  -0.23911
    X6        0.76896   0.00000   0.00000  -0.00004  -0.00005   0.76891
    Y6        2.50192   0.00001   0.00000  -0.00012  -0.00014   2.50177
    Z6        1.11602   0.00001   0.00000   0.00040   0.00045   1.11647
    X7        0.97729   0.00000   0.00000   0.00016   0.00015   0.97744
    Y7        1.84549   0.00001   0.00000   0.00046   0.00048   1.84598
    Z7       -2.11582   0.00000   0.00000   0.00032   0.00036  -2.11547
    X8       -1.14028   0.00003   0.00000   0.00006   0.00007  -1.14020
    Y8       -0.84704   0.00000   0.00000  -0.00001  -0.00002  -0.84706
    Z8        0.02909  -0.00001   0.00000  -0.00029  -0.00028   0.02881
    X9       -0.94710  -0.00001   0.00000  -0.00003  -0.00001  -0.94711
    Y9       -2.73690  -0.00000   0.00000   0.00024   0.00023  -2.73667
    Z9       -0.72947  -0.00000   0.00000  -0.00094  -0.00096  -0.73043
   X10       -3.58337  -0.00001   0.00000   0.00001   0.00001  -3.58336
   Y10        0.14171  -0.00000   0.00000  -0.00011  -0.00013   0.14158
   Z10       -0.03540   0.00001   0.00000   0.00017   0.00018  -0.03521
   X11       -3.80518   0.00000   0.00000  -0.00006  -0.00006  -3.80524
   Y11        1.77425   0.00000   0.00000  -0.00007  -0.00011   1.77414
   Z11        0.92839  -0.00001   0.00000   0.00007   0.00010   0.92849
   X12       -4.97313  -0.00000   0.00000  -0.00004  -0.00003  -4.97317
   Y12       -1.09405  -0.00000   0.00000  -0.00017  -0.00021  -1.09426
   Z12        0.37807  -0.00001   0.00000  -0.00026  -0.00026   0.37781
         Item               Value     Threshold  Converged?
 Maximum Force            0.000027     0.000450     YES
 RMS     Force            0.000007     0.000300     YES
 Maximum Displacement     0.001272     0.001800     YES
 RMS     Displacement     0.000457     0.001200     YES
 Predicted change in Energy=-1.299780D-08
 Optimization completed.
    -- Stationary point found.
 GradGradGradGradGradGradGradGradGradGradGradGradGradGradGradGradGradGrad

 Leave Link  103 at Fri Jul  9 11:13:46 2021, MaxMem=   104857600 cpu:               0.1 elap:               0.2
 (Enter /opt/gaussian/g16/l9999.exe)

 ----------------------------------------------------------------------

 Electric dipole moment (input orientation):
 (Debye = 10**-18 statcoulomb cm , SI units = C m)
                  (au)            (Debye)         (10**-30 SI)
   Tot        0.346251D+00      0.880082D+00      0.293564D+01
   x         -0.255353D+00     -0.649042D+00     -0.216497D+01
   y          0.768624D-01      0.195365D+00      0.651667D+00
   z          0.220855D+00      0.561357D+00      0.187249D+01

 Dipole polarizability, Alpha (input orientation).
 (esu units = cm**3 , SI units = C**2 m**2 J**-1)
 Alpha(0;0):
               (au)            (10**-24 esu)      (10**-40 SI)
   iso        0.508211D+02      0.753091D+01      0.837927D+01
   aniso      0.158066D+02      0.234229D+01      0.260615D+01
   xx         0.606897D+02      0.899328D+01      0.100064D+02
   yx        -0.177028D+01     -0.262328D+00     -0.291879D+00
   yy         0.478954D+02      0.709737D+01      0.789689D+01
   zx         0.404445D+00      0.599325D-01      0.666839D-01
   zy        -0.170564D+01     -0.252749D+00     -0.281221D+00
   zz         0.438782D+02      0.650208D+01      0.723454D+01

 ----------------------------------------------------------------------

 Dipole orientation:
     6          2.47176791          0.00059704         -2.57530602
     1          3.85689629         -1.19204178         -1.62604509
     1          1.50351708         -1.15487222         -3.98092745
     1          3.47488267          1.49736747         -3.56968948
     6          0.58887822          1.07830162         -0.68071863
     1          1.58672909          2.25576285          0.70014605
     1         -0.72314906          2.35733262         -1.66062474
     6         -0.82484002         -0.94198351          0.67145417
     1         -1.44412845         -2.58729507         -0.37437340
     7         -2.40539131         -0.21286394          2.65154202
     1         -1.67959368          1.13443752          3.79226974
     1         -3.15225641         -1.64214079          3.66586783

 Electric dipole moment (dipole orientation):
 (Debye = 10**-18 statcoulomb cm , SI units = C m)
                  (au)            (Debye)         (10**-30 SI)
   Tot        0.346251D+00      0.880082D+00      0.293564D+01
   x          0.000000D+00      0.000000D+00      0.000000D+00
   y          0.000000D+00      0.000000D+00      0.000000D+00
   z          0.346251D+00      0.880082D+00      0.293564D+01

 Dipole polarizability, Alpha (dipole orientation).
 (esu units = cm**3 , SI units = C**2 m**2 J**-1)
 Alpha(0;0):
               (au)            (10**-24 esu)      (10**-40 SI)
   iso        0.508211D+02      0.753091D+01      0.837927D+01
   aniso      0.158066D+02      0.234229D+01      0.260615D+01
   xx         0.513291D+02      0.760619D+01      0.846303D+01
   yx        -0.865041D+00     -0.128186D+00     -0.142626D+00
   yy         0.481986D+02      0.714229D+01      0.794687D+01
   zx        -0.875957D+01     -0.129803D+01     -0.144426D+01
   zy        -0.264749D-01     -0.392318D-02     -0.436513D-02
   zz         0.529356D+02      0.784425D+01      0.872790D+01

 ----------------------------------------------------------------------
 Unable to Open any file for archive entry.
 1\1\GINC-A26\Freq\UM062X\Jun-CC-pVTZ\C3H8N1(2)\SHANGYL\09-Jul-2021\0\\
 #P freq M062X/jun-cc-pVTZ\\Generated by Multiwfn\\0,2\C,1.878721,-0.17
 1473,0.095302\H,1.934763,-0.598829,1.096364\H,2.023925,-0.980856,-0.62
 1277\H,2.700511,0.533002,-0.024688\C,0.530832,0.504629,-0.126619\H,0.4
 06915,1.323957,0.590572\H,0.517157,0.976593,-1.119645\C,-0.603408,-0.4
 48232,0.015393\H,-0.501183,-1.448307,-0.386017\N,-1.896239,0.074992,-0
 .018731\H,-2.013616,0.938893,0.491284\H,-2.631669,-0.578945,0.200065\\
 Version=ES64L-G16RevC.01\State=2-A\HF=-173.8082381\S2=0.754586\S2-1=0.
 \S2A=0.750015\RMSD=5.698e-09\RMSF=7.243e-06\ZeroPoint=0.1078783\Therma
 l=0.1136731\ETot=-173.694565\HTot=-173.6936208\GTot=-173.7289376\Dipol
 e=-0.2553527,0.0768624,0.2208548\DipoleDeriv=0.0469282,0.0167798,-0.01
 05299,-0.0147473,0.0806322,0.0003565,0.0022279,0.0064833,0.0929422,0.0
 42014,0.004115,0.0213428,0.0417624,0.0257317,0.0644529,-0.042003,0.075
 0966,-0.1004331,0.0332552,0.0074331,-0.0123163,0.0598747,-0.0588458,-0
 .0878644,0.0231497,-0.1034406,-0.0279465,-0.1051031,-0.0639733,0.00664
 87,-0.1101343,-0.0263422,0.0161523,0.02307,0.0171278,0.0694882,0.07261
 27,0.0676441,-0.027094,-0.028544,0.1239115,-0.045064,0.0354627,-0.0134
 721,0.2031814,-0.0186127,0.0443196,0.0286611,0.0195509,-0.0945685,-0.0
 888722,0.0241861,-0.1233841,-0.0301456,-0.0569393,0.0020216,-0.0159741
 ,-0.0485417,-0.0344151,0.0987894,0.0308867,0.1393011,-0.1309114,0.6832
 267,-0.1533709,0.0194415,-0.1458546,0.0916451,0.1127761,-0.0457556,0.1
 295192,-0.2135445,-0.0204439,-0.0054141,0.0206976,-0.0020496,-0.065301
 9,-0.0773579,0.0213736,-0.131876,0.0975095,-0.997939,0.1217119,-0.0804
 546,0.2772154,-0.3271722,0.076668,-0.3116077,0.1139493,-0.4004835,0.16
 61743,-0.0381597,0.0013661,-0.041932,0.1531743,-0.0809425,0.0850705,-0
 .1173905,0.1894282,0.1548269,-0.0031071,0.0482111,-0.0065998,0.1315508
 ,0.0109059,0.1539391,0.008086,0.250915\Polar=60.6896601,-1.770278,47.8
 954355,0.4044448,-1.7056353,43.8782067\Quadrupole=1.4715057,0.3602006,
 -1.8317063,0.5217127,-1.8130674,1.1782228\PG=C01 [X(C3H8N1)]\NImag=0\\
 0.50769147,0.04436176,0.55599485,-0.01302983,0.00384080,0.57144355,-0.
 04655777,0.00300792,-0.00875029,0.05093976,0.00357388,-0.08723891,0.09
 453380,-0.00734038,0.09199144,-0.01044749,0.09498564,-0.27612897,0.011
 88395,-0.10531240,0.29789262,-0.05015890,0.02241565,0.02130478,-0.0010
 0383,-0.00113698,-0.00053963,0.05537351,0.02323818,-0.19220664,-0.1301
 5573,-0.00191180,0.01064199,0.00865115,-0.02877776,0.20809732,0.022090
 90,-0.13082152,-0.16536407,0.00313863,-0.02289446,-0.01908145,-0.02305
 643,0.14355762,0.17577969,-0.19734315,-0.13208054,0.02223638,0.0014475
 9,0.00185137,0.00041394,0.00348493,0.00314519,-0.00130096,0.21633934,-
 0.13417300,-0.16422781,0.02000965,-0.00786413,-0.00825052,0.00019259,-
 0.01734946,-0.01543022,0.00399943,0.14374646,0.17572377,0.02295603,0.0
 2041954,-0.05096108,0.02310929,0.01959242,-0.00182760,-0.01746782,-0.0
 1400715,0.00262713,-0.02423568,-0.02232064,0.05004603,-0.17324529,0.05
 104098,-0.01698460,-0.00239756,0.00134739,-0.00045753,-0.00532738,0.00
 265341,-0.00079347,-0.02056946,0.01393109,-0.00406690,0.48711232,0.049
 53659,-0.10611115,0.00829789,0.01212109,-0.00673925,0.00129248,0.02287
 583,-0.01192297,0.00492406,-0.02021355,0.01163482,-0.00419215,-0.00809
 634,0.53202665,-0.01831337,0.00806606,-0.08000022,-0.02907137,0.014385
 36,-0.00307800,0.02085979,-0.01000021,0.00405831,0.00353537,-0.0020419
 2,-0.00044090,-0.00403282,0.02466595,0.53119799,-0.00477828,0.02309439
 ,0.02076535,0.00139893,-0.00069155,-0.00031661,-0.00537121,0.00289979,
 -0.00139704,0.00094211,-0.00077671,0.00043872,-0.05026513,0.01899292,0
 .01649904,0.05742676,0.00213605,-0.01049248,-0.00891440,-0.00060730,-0
 .00010492,0.00020910,0.00252824,-0.00031931,0.00084671,-0.00004823,0.0
 0073190,0.00017516,0.02164964,-0.18038000,-0.12321994,-0.02081001,0.20
 288834,-0.00051306,0.00497119,0.00384565,0.00044369,0.00008893,0.00071
 730,-0.00113097,0.00115358,0.00113145,0.00066919,-0.00019439,-0.000058
 18,0.01930136,-0.12409633,-0.15769355,-0.02061674,0.13518732,0.1699663
 7,-0.00237732,0.01327277,-0.02881310,-0.00537097,0.00328067,-0.0007532
 0,0.00132555,-0.00042919,0.00069028,0.00109887,-0.00092049,0.00001930,
 -0.04442502,0.00068373,0.00109146,0.00014987,-0.00142933,0.00375078,0.
 05237777,0.00153018,-0.00617098,0.01343924,0.00241722,-0.00074846,0.00
 040476,-0.00076571,-0.00003129,0.00011549,-0.00019987,0.00057216,-0.00
 041544,0.00489136,-0.08532373,0.09083635,-0.00018968,0.00957079,-0.021
 77580,-0.00105078,0.09610474,-0.00032352,0.00121848,-0.00360195,-0.000
 61598,0.00020775,0.00143505,-0.00005082,0.00023719,0.00067896,-0.00049
 851,-0.00014417,-0.00010068,-0.00765887,0.08555862,-0.24501077,-0.0003
 4776,0.00771510,-0.02250033,0.00332974,-0.10123856,0.26877406,-0.03173
 719,-0.01654463,0.00285742,0.00117263,-0.00104496,0.00056032,0.0015306
 9,-0.00115684,-0.00008581,-0.00322734,0.00210301,-0.00072487,-0.163283
 56,-0.07948418,0.01828394,0.00239917,0.00083680,0.00004039,-0.00274807
 ,-0.00474895,0.00430484,0.58482489,0.01131548,0.01258502,-0.00198316,0
 .00089125,0.00045635,-0.00013490,0.00168349,0.00041687,-0.00011026,0.0
 0506584,-0.00201047,0.00082392,-0.06708281,-0.15301683,0.00869921,-0.0
 2090414,-0.02314449,0.00299071,-0.01569235,-0.01659409,0.00766564,-0.0
 2340791,0.62300169,-0.00236709,-0.00290570,-0.00039853,-0.00033202,-0.
 00042172,0.00025075,0.00045392,0.00037023,0.00004698,-0.00058420,0.000
 42382,0.00018945,0.00642237,-0.00283588,-0.05493972,-0.01508074,-0.011
 59778,0.00462678,0.02353034,0.02166887,-0.00002399,-0.02615074,0.11305
 212,0.13345828,0.00220682,-0.00094730,-0.00053719,-0.00009868,0.000116
 67,-0.00024772,-0.00030242,0.00046681,0.00058991,0.00011645,0.00029774
 ,0.00009128,0.00396907,-0.01852924,-0.00987635,-0.00331025,-0.00354553
 ,0.00043626,0.00008111,-0.00017260,0.00025067,-0.05591411,0.01359427,0
 .00864046,0.06164158,0.00100866,0.00066749,0.00026959,-0.00022898,0.00
 003675,-0.00005606,-0.00078552,0.00045237,0.00004024,-0.00006836,0.000
 27905,0.00022793,0.00293343,-0.01291520,-0.00978501,-0.00236466,-0.001
 22706,0.00128240,0.00029473,0.00025660,0.00013380,0.02288566,-0.293167
 20,-0.10107824,-0.02638174,0.31221985,0.00000616,-0.00021409,0.0003191
 0,-0.00021496,-0.00008129,-0.00030670,-0.00021079,-0.00010937,0.000076
 71,-0.00005015,0.00025711,-0.00014485,0.00203422,0.00692098,0.00316697
 ,-0.00008378,-0.00112255,0.00001079,-0.00060010,-0.00085062,-0.0000086
 8,0.01176074,-0.12148389,-0.05941759,-0.01284078,0.11417286,0.05339052
 ,-0.00273407,-0.00595877,0.00097846,0.00043909,0.00002664,-0.00008148,
 0.00017523,0.00014967,0.00016218,-0.00192915,0.00074255,0.00009844,-0.
 02957898,0.01559731,-0.00090946,0.00152910,0.00037962,-0.00133398,-0.0
 0021680,-0.00161378,0.00150051,-0.30638451,0.08554008,-0.01729441,-0.0
 0402051,0.00059339,-0.00001878,0.66339452,-0.00281560,-0.00316671,0.00
 034805,-0.00056097,-0.00000542,-0.00027941,-0.00051279,0.00035828,0.00
 039923,-0.00131720,0.00105368,-0.00037211,-0.02502792,0.01142594,-0.00
 355768,-0.00012995,0.00200441,0.00096930,0.00237417,0.00267213,-0.0015
 6688,0.08189219,-0.14794939,-0.00856359,0.03294649,-0.00856682,0.00412
 067,0.06940366,0.70167297,0.00005253,-0.00024770,0.00029000,0.00059285
 ,-0.00014759,0.00018710,0.00006088,0.00030851,0.00014517,-0.00027918,-
 0.00018940,0.00071924,0.00687942,-0.00055029,0.00160649,-0.00077146,0.
 00049060,-0.00023874,-0.00272734,-0.00243928,0.00118946,0.00068167,-0.
 01369164,-0.02262866,0.01354555,-0.00602067,0.00256610,-0.11184271,0.1
 5308737,0.17246602,-0.00023060,-0.00017900,-0.00042603,0.00005828,0.00
 000851,0.00006204,0.00029948,-0.00029276,-0.00009758,0.00007572,-0.000
 07473,-0.00005049,0.00171768,0.00140858,0.00136995,-0.00047939,-0.0012
 9222,-0.00091896,-0.00011842,-0.00019837,-0.00000231,-0.00251046,0.033
 81559,0.01691473,-0.00558564,0.00147169,0.00047487,-0.06632175,0.02524
 351,0.02780571,0.06785351,-0.00037284,-0.00017251,0.00023649,0.0001290
 5,-0.00005030,0.00002585,-0.00009982,-0.00006579,-0.00000797,-0.000126
 90,0.00001902,0.00005165,-0.00000650,0.00218870,0.00228601,0.00085167,
 0.00023229,-0.00091642,-0.00066203,-0.00040373,0.00027496,0.00513888,-
 0.01402692,-0.00669213,0.00228172,0.00175350,-0.00095324,0.02368974,-0
 .32627506,-0.16824880,-0.03681248,0.35291815,0.00001597,0.00018096,-0.
 00003890,-0.00019557,0.00009884,-0.00004123,-0.00012448,0.00001744,-0.
 00004574,0.00003262,0.00002456,-0.00003514,-0.00101495,0.00054747,-0.0
 0038019,0.00059473,-0.00030876,-0.00000701,0.00092981,0.00032361,-0.00
 080548,-0.00355463,0.00573529,0.00129975,-0.00018812,0.00015337,0.0012
 6948,0.03248840,-0.20657889,-0.12160292,-0.02855226,0.18745045,0.11852
 498,-0.00073572,-0.00148324,0.00039863,-0.00002745,0.00000874,-0.00007
 658,-0.00002565,0.00001529,0.00005939,-0.00043589,0.00033767,-0.000167
 30,-0.00370668,0.00510727,0.00056382,0.00035832,0.00020227,-0.00012797
 ,0.00022343,0.00010099,0.00011202,-0.02412214,-0.02481879,0.00584738,0
 .00121658,0.00064171,-0.00025666,-0.25435217,-0.18149558,0.06600208,0.
 00524159,0.00598951,-0.00043152,0.27636578,0.00066068,0.00053983,0.000
 07778,-0.00005295,0.00001126,0.00002121,-0.00007517,0.00000941,-0.0000
 4858,0.00024578,-0.00009538,0.00001688,0.00176626,-0.00086699,-0.00033
 418,0.00002793,0.00024054,0.00033951,0.00027810,0.00009585,-0.00006192
 ,0.01353095,0.01344945,-0.00141999,-0.00012729,0.00021065,-0.00065657,
 -0.18855011,-0.23322399,0.03764888,-0.02309832,-0.01611735,0.01235566,
 0.19539416,0.23574671,-0.00012722,0.00050634,0.00059541,0.00001178,-0.
 00004964,-0.00001887,-0.00009843,-0.00002326,-0.00005316,0.00006118,-0
 .00001664,-0.00001343,0.00037175,-0.00053280,0.00151359,0.00031630,0.0
 0053945,0.00019947,-0.00044797,-0.00006861,-0.00002566,-0.00797327,-0.
 00156304,-0.00246350,0.00013601,0.00065980,-0.00092184,0.09625285,0.06
 199395,-0.03469927,-0.01657966,-0.01350685,0.00186241,-0.07192330,-0.0
 4793869,0.03402485\\0.00000681,-0.00000251,-0.00000698,-0.00000253,-0.
 00000270,0.00000008,-0.00000032,0.00000362,0.00000210,-0.00000302,0.00
 000104,0.00000291,0.00001157,0.00001241,0.00000360,-0.00000081,-0.0000
 0745,-0.00000623,-0.00000271,-0.00000560,-0.00000337,-0.00002688,-0.00
 000326,0.00000505,0.00000502,0.00000157,0.00000370,0.00001280,0.000004
 58,-0.00001412,-0.00000095,-0.00000369,0.00000673,0.00000102,0.0000020
 0,0.00000651\\\@
 The archive entry for this job was punched.


 CONFIDENCE IS WHAT YOU FEEL BEFORE YOU FULLY
 COMPREHEND THE SITUATION.
 Job cpu time:       0 days  0 hours 59 minutes 20.8 seconds.
 Elapsed time:       0 days  0 hours 59 minutes 20.3 seconds.
 File lengths (MBytes):  RWF=    124 Int=      0 D2E=      0 Chk=      7 Scr=      1
 Normal termination of Gaussian 16 at Fri Jul  9 11:13:46 2021.
