 Entering Gaussian System, Link 0=g16
 Initial command:
 /opt/gaussian/g16/l1.exe "/tmp/Gau-39408.inp" -scrdir="/tmp/"
 Entering Link 1 = /opt/gaussian/g16/l1.exe PID=     39409.
  
 Copyright (c) 1988-2019, Gaussian, Inc.  All Rights Reserved.
  
 This is part of the Gaussian(R) 16 program.  It is based on
 the Gaussian(R) 09 system (copyright 2009, Gaussian, Inc.),
 the Gaussian(R) 03 system (copyright 2003, Gaussian, Inc.),
 the Gaussian(R) 98 system (copyright 1998, Gaussian, Inc.),
 the Gaussian(R) 94 system (copyright 1995, Gaussian, Inc.),
 the Gaussian 92(TM) system (copyright 1992, Gaussian, Inc.),
 the Gaussian 90(TM) system (copyright 1990, Gaussian, Inc.),
 the Gaussian 88(TM) system (copyright 1988, Gaussian, Inc.),
 the Gaussian 86(TM) system (copyright 1986, Carnegie Mellon
 University), and the Gaussian 82(TM) system (copyright 1983,
 Carnegie Mellon University). Gaussian is a federally registered
 trademark of Gaussian, Inc.
  
 This software contains proprietary and confidential information,
 including trade secrets, belonging to Gaussian, Inc.
  
 This software is provided under written license and may be
 used, copied, transmitted, or stored only in accord with that
 written license.
  
 The following legend is applicable only to US Government
 contracts under FAR:
  
                    RESTRICTED RIGHTS LEGEND
  
 Use, reproduction and disclosure by the US Government is
 subject to restrictions as set forth in subparagraphs (a)
 and (c) of the Commercial Computer Software - Restricted
 Rights clause in FAR 52.227-19.
  
 Gaussian, Inc.
 340 Quinnipiac St., Bldg. 40, Wallingford CT 06492
  
  
 ---------------------------------------------------------------
 Warning -- This program may not be used in any manner that
 competes with the business of Gaussian, Inc. or will provide
 assistance to any competitor of Gaussian, Inc.  The licensee
 of this program is prohibited from giving any competitor of
 Gaussian, Inc. access to this program.  By using this program,
 the user acknowledges that Gaussian, Inc. is engaged in the
 business of creating and licensing software in the field of
 computational chemistry and represents and warrants to the
 licensee that it is not a competitor of Gaussian, Inc. and that
 it will not use this program in any manner prohibited above.
 ---------------------------------------------------------------
  

 Cite this work as:
 Gaussian 16, Revision C.01,
 M. J. Frisch, G. W. Trucks, H. B. Schlegel, G. E. Scuseria, 
 M. A. Robb, J. R. Cheeseman, G. Scalmani, V. Barone, 
 G. A. Petersson, H. Nakatsuji, X. Li, M. Caricato, A. V. Marenich, 
 J. Bloino, B. G. Janesko, R. Gomperts, B. Mennucci, H. P. Hratchian, 
 J. V. Ortiz, A. F. Izmaylov, J. L. Sonnenberg, D. Williams-Young, 
 F. Ding, F. Lipparini, F. Egidi, J. Goings, B. Peng, A. Petrone, 
 T. Henderson, D. Ranasinghe, V. G. Zakrzewski, J. Gao, N. Rega, 
 G. Zheng, W. Liang, M. Hada, M. Ehara, K. Toyota, R. Fukuda, 
 J. Hasegawa, M. Ishida, T. Nakajima, Y. Honda, O. Kitao, H. Nakai, 
 T. Vreven, K. Throssell, J. A. Montgomery, Jr., J. E. Peralta, 
 F. Ogliaro, M. J. Bearpark, J. J. Heyd, E. N. Brothers, K. N. Kudin, 
 V. N. Staroverov, T. A. Keith, R. Kobayashi, J. Normand, 
 K. Raghavachari, A. P. Rendell, J. C. Burant, S. S. Iyengar, 
 J. Tomasi, M. Cossi, J. M. Millam, M. Klene, C. Adamo, R. Cammi, 
 J. W. Ochterski, R. L. Martin, K. Morokuma, O. Farkas, 
 J. B. Foresman, and D. J. Fox, Gaussian, Inc., Wallingford CT, 2019.
 
 ******************************************
 Gaussian 16:  ES64L-G16RevC.01  3-Jul-2019
                15-Jun-2021 
 ******************************************
 %nprocshared=24
 Will use up to   24 processors via shared memory.
 %mem=6000MB
 %chk=s000001.chk
 ------------------------
 # freq jun-cc-pvtz m062x
 ------------------------
 1/10=4,30=1,38=1/1,3;
 2/12=2,17=6,18=5,40=1/2;
 3/5=16,6=1,7=60,11=2,25=1,30=1,71=2,74=-55,140=1/1,2,3;
 4//1;
 5/5=2,38=5,98=1/2;
 8/6=4,10=90,11=11/1;
 11/6=1,8=1,9=11,15=111,16=1/1,2,10;
 10/6=1/2;
 6/7=2,8=2,9=2,10=2,28=1/1;
 7/8=1,10=1,25=1/1,2,3,16;
 1/10=4,30=1/3;
 99//99;
 -------
 s000001
 -------
 Symbolic Z-matrix:
 Charge =  0 Multiplicity = 1
 C                     1.91223  -0.11614   0. 
 H                     2.04544  -0.74665  -0.88039 
 H                     2.04546  -0.74649   0.8805 
 H                     2.70598   0.62964  -0.00007 
 C                     0.53236   0.52931  -0.00004 
 H                     0.41935   1.17334   0.87634 
 H                     0.41935   1.17323  -0.8765 
 C                    -0.58765  -0.50703   0.00003 
 H                    -0.47934  -1.1543    0.87357 
 H                    -0.47936  -1.15439  -0.87344 
 N                    -1.94653   0.02407   0.00001 
 H                    -2.0964    0.61018   0.81245 
 H                    -2.09641   0.61009  -0.81249 
 

 GradGradGradGradGradGradGradGradGradGradGradGradGradGradGradGradGradGrad
 Berny optimization.
 Initialization pass.
 Trust Radius=3.00D-01 FncErr=1.00D-07 GrdErr=1.00D-07 EigMax=2.50D+02 EigMin=1.00D-04
 Number of steps in this run=      2 maximum allowed number of steps=      2.
 GradGradGradGradGradGradGradGradGradGradGradGradGradGradGradGradGradGrad

                          Input orientation:                          
 ---------------------------------------------------------------------
 Center     Atomic      Atomic             Coordinates (Angstroms)
 Number     Number       Type             X           Y           Z
 ---------------------------------------------------------------------
      1          6           0        1.912230   -0.116144    0.000003
      2          1           0        2.045441   -0.746651   -0.880389
      3          1           0        2.045462   -0.746494    0.880504
      4          1           0        2.705981    0.629636   -0.000073
      5          6           0        0.532363    0.529313   -0.000037
      6          1           0        0.419347    1.173336    0.876344
      7          1           0        0.419346    1.173227   -0.876498
      8          6           0       -0.587649   -0.507025    0.000029
      9          1           0       -0.479342   -1.154300    0.873567
     10          1           0       -0.479355   -1.154394   -0.873442
     11          7           0       -1.946533    0.024073    0.000009
     12          1           0       -2.096401    0.610175    0.812445
     13          1           0       -2.096412    0.610091   -0.812485
 ---------------------------------------------------------------------
                    Distance matrix (angstroms):
                    1          2          3          4          5
     1  C    0.000000
     2  H    1.091043   0.000000
     3  H    1.091043   1.760893   0.000000
     4  H    1.089141   1.762225   1.762224   0.000000
     5  C    1.523367   2.166220   2.166219   2.175932   0.000000
     6  H    2.158572   3.068655   2.515952   2.508468   1.093427
     7  H    2.158572   2.515975   3.068654   2.508448   1.093427
     8  C    2.530254   2.786704   2.786728   3.484250   1.525917
     9  H    2.749636   3.101140   2.557536   3.753926   2.149717
    10  H    2.749645   2.557518   3.101195   3.753918   2.149716
    11  N    3.861310   4.159925   4.159936   4.691758   2.529860
    12  H    4.154121   4.675630   4.358923   4.870671   2.752647
    13  H    4.154126   4.358934   4.675645   4.870665   2.752645
                    6          7          8          9         10
     6  H    0.000000
     7  H    1.752842   0.000000
     8  C    2.146062   2.146063   0.000000
     9  H    2.495103   3.047581   1.092595   0.000000
    10  H    3.047580   2.495094   1.092596   1.747009   0.000000
    11  N    2.772392   2.772400   1.458983   2.074685   2.074684
    12  H    2.578802   3.081970   2.045602   2.394157   2.927585
    13  H    3.081953   2.578809   2.045603   2.927586   2.394159
                   11         12         13
    11  N    0.000000
    12  H    1.012931   0.000000
    13  H    1.012930   1.624930   0.000000
 Stoichiometry    C3H9N
 Framework group  C1[X(C3H9N)]
 Deg. of freedom    33
 Full point group                 C1      NOp   1
 Largest Abelian subgroup         C1      NOp   1
 Largest concise Abelian subgroup C1      NOp   1
                         Standard orientation:                         
 ---------------------------------------------------------------------
 Center     Atomic      Atomic             Coordinates (Angstroms)
 Number     Number       Type             X           Y           Z
 ---------------------------------------------------------------------
      1          6           0        1.912230   -0.116144    0.000003
      2          1           0        2.045441   -0.746651   -0.880389
      3          1           0        2.045462   -0.746494    0.880504
      4          1           0        2.705981    0.629636   -0.000073
      5          6           0        0.532363    0.529313   -0.000037
      6          1           0        0.419347    1.173336    0.876344
      7          1           0        0.419346    1.173227   -0.876498
      8          6           0       -0.587649   -0.507025    0.000029
      9          1           0       -0.479342   -1.154300    0.873567
     10          1           0       -0.479355   -1.154394   -0.873442
     11          7           0       -1.946533    0.024073    0.000009
     12          1           0       -2.096401    0.610175    0.812445
     13          1           0       -2.096412    0.610091   -0.812485
 ---------------------------------------------------------------------
 Rotational constants (GHZ):          24.8956106           3.7194535           3.5043207
 Standard basis: Jun-CC-pVTZ (5D, 7F)
 There are   315 symmetry adapted cartesian basis functions of A   symmetry.
 There are   282 symmetry adapted basis functions of A   symmetry.
   282 basis functions,   401 primitive gaussians,   315 cartesian basis functions
    17 alpha electrons       17 beta electrons
       nuclear repulsion energy       131.5320369702 Hartrees.
 NAtoms=   13 NActive=   13 NUniq=   13 SFac= 1.00D+00 NAtFMM=   60 NAOKFM=F Big=F
 Integral buffers will be    131072 words long.
 Raffenetti 2 integral format.
 Two-electron integral symmetry is turned on.
 One-electron integrals computed using PRISM.
 NBasis=   282 RedAO= T EigKep=  7.97D-05  NBF=   282
 NBsUse=   282 1.00D-06 EigRej= -1.00D+00 NBFU=   282
 ExpMin= 3.57D-02 ExpMax= 1.14D+04 ExpMxC= 3.89D+02 IAcc=3 IRadAn=         5 AccDes= 0.00D+00
 Harris functional with IExCor= 1009 and IRadAn=       5 diagonalized for initial guess.
 HarFok:  IExCor= 1009 AccDes= 0.00D+00 IRadAn=         5 IDoV= 1 UseB2=F ITyADJ=14
 ICtDFT=  3500011 ScaDFX=  1.000000  1.000000  1.000000  1.000000
 FoFCou: FMM=F IPFlag=           0 FMFlag=      100000 FMFlg1=           0
         NFxFlg=           0 DoJE=T BraDBF=F KetDBF=T FulRan=T
         wScrn=  0.000000 ICntrl=       500 IOpCl=  0 I1Cent=   200000004 NGrid=           0
         NMat0=    1 NMatS0=      1 NMatT0=    0 NMatD0=    1 NMtDS0=    0 NMtDT0=    0
 Petite list used in FoFCou.
 Requested convergence on RMS density matrix=1.00D-08 within 128 cycles.
 Requested convergence on MAX density matrix=1.00D-06.
 Requested convergence on             energy=1.00D-06.
 No special actions if energy rises.
 SCF Done:  E(RM062X) =  -174.462500910     A.U. after   12 cycles
            NFock= 12  Conv=0.45D-08     -V/T= 2.0062
 DoSCS=F DFT=T ScalE2(SS,OS)=  1.000000  1.000000
 Range of M.O.s used for correlation:     1   282
 NBasis=   282 NAE=    17 NBE=    17 NFC=     0 NFV=     0
 NROrb=    282 NOA=    17 NOB=    17 NVA=   265 NVB=   265

 **** Warning!!: The largest alpha MO coefficient is  0.30875958D+02

 Symmetrizing basis deriv contribution to polar:
 IMax=3 JMax=2 DiffMx= 0.00D+00
 G2DrvN: will do    14 centers at a time, making    1 passes.
 Calling FoFCou, ICntrl=  3107 FMM=F I1Cent=   0 AccDes= 0.00D+00.
 End of G2Drv F.D. properties file   721 does not exist.
 End of G2Drv F.D. properties file   722 does not exist.
 End of G2Drv F.D. properties file   788 does not exist.
          IDoAtm=1111111111111
          Differentiating once with respect to electric field.
                with respect to dipole field.
          Differentiating once with respect to nuclear coordinates.
 CalDSu exits because no D1Ps are significant.
          There are    42 degrees of freedom in the 1st order CPHF.  IDoFFX=6 NUNeed=     3.
     39 vectors produced by pass  0 Test12= 1.07D-14 2.38D-09 XBig12= 2.16D+01 1.25D+00.
 AX will form    39 AO Fock derivatives at one time.
     39 vectors produced by pass  1 Test12= 1.07D-14 2.38D-09 XBig12= 7.82D-01 2.12D-01.
     39 vectors produced by pass  2 Test12= 1.07D-14 2.38D-09 XBig12= 1.05D-02 2.14D-02.
     39 vectors produced by pass  3 Test12= 1.07D-14 2.38D-09 XBig12= 6.94D-05 1.72D-03.
     39 vectors produced by pass  4 Test12= 1.07D-14 2.38D-09 XBig12= 3.73D-07 9.49D-05.
     39 vectors produced by pass  5 Test12= 1.07D-14 2.38D-09 XBig12= 1.44D-09 4.83D-06.
     16 vectors produced by pass  6 Test12= 1.07D-14 2.38D-09 XBig12= 5.84D-12 3.29D-07.
      3 vectors produced by pass  7 Test12= 1.07D-14 2.38D-09 XBig12= 2.12D-14 1.80D-08.
 InvSVY:  IOpt=1 It=  1 EMax= 3.55D-15
 Solved reduced A of dimension   253 with    42 vectors.
 Isotropic polarizability for W=    0.000000       49.21 Bohr**3.
 End of Minotr F.D. properties file   721 does not exist.
 End of Minotr F.D. properties file   722 does not exist.
 End of Minotr F.D. properties file   788 does not exist.

 **********************************************************************

            Population analysis using the SCF Density.

 **********************************************************************

 Orbital symmetries:
       Occupied  (A) (A) (A) (A) (A) (A) (A) (A) (A) (A) (A) (A)
                 (A) (A) (A) (A) (A)
       Virtual   (A) (A) (A) (A) (A) (A) (A) (A) (A) (A) (A) (A)
                 (A) (A) (A) (A) (A) (A) (A) (A) (A) (A) (A) (A)
                 (A) (A) (A) (A) (A) (A) (A) (A) (A) (A) (A) (A)
                 (A) (A) (A) (A) (A) (A) (A) (A) (A) (A) (A) (A)
                 (A) (A) (A) (A) (A) (A) (A) (A) (A) (A) (A) (A)
                 (A) (A) (A) (A) (A) (A) (A) (A) (A) (A) (A) (A)
                 (A) (A) (A) (A) (A) (A) (A) (A) (A) (A) (A) (A)
                 (A) (A) (A) (A) (A) (A) (A) (A) (A) (A) (A) (A)
                 (A) (A) (A) (A) (A) (A) (A) (A) (A) (A) (A) (A)
                 (A) (A) (A) (A) (A) (A) (A) (A) (A) (A) (A) (A)
                 (A) (A) (A) (A) (A) (A) (A) (A) (A) (A) (A) (A)
                 (A) (A) (A) (A) (A) (A) (A) (A) (A) (A) (A) (A)
                 (A) (A) (A) (A) (A) (A) (A) (A) (A) (A) (A) (A)
                 (A) (A) (A) (A) (A) (A) (A) (A) (A) (A) (A) (A)
                 (A) (A) (A) (A) (A) (A) (A) (A) (A) (A) (A) (A)
                 (A) (A) (A) (A) (A) (A) (A) (A) (A) (A) (A) (A)
                 (A) (A) (A) (A) (A) (A) (A) (A) (A) (A) (A) (A)
                 (A) (A) (A) (A) (A) (A) (A) (A) (A) (A) (A) (A)
                 (A) (A) (A) (A) (A) (A) (A) (A) (A) (A) (A) (A)
                 (A) (A) (A) (A) (A) (A) (A) (A) (A) (A) (A) (A)
                 (A) (A) (A) (A) (A) (A) (A) (A) (A) (A) (A) (A)
                 (A) (A) (A) (A) (A) (A) (A) (A) (A) (A) (A) (A)
                 (A)
 The electronic state is 1-A.
 Alpha  occ. eigenvalues --  -14.72324 -10.55445 -10.52984 -10.52492  -0.98800
 Alpha  occ. eigenvalues --   -0.86797  -0.74999  -0.67484  -0.57569  -0.51755
 Alpha  occ. eigenvalues --   -0.51137  -0.47346  -0.43614  -0.43149  -0.40738
 Alpha  occ. eigenvalues --   -0.39004  -0.30396
 Alpha virt. eigenvalues --    0.00827   0.01434   0.02303   0.02376   0.04779
 Alpha virt. eigenvalues --    0.05655   0.05787   0.06128   0.06189   0.08835
 Alpha virt. eigenvalues --    0.10191   0.10843   0.13551   0.14718   0.15163
 Alpha virt. eigenvalues --    0.16836   0.17862   0.19126   0.19468   0.21305
 Alpha virt. eigenvalues --    0.21761   0.22070   0.22387   0.23645   0.25294
 Alpha virt. eigenvalues --    0.26011   0.26432   0.27297   0.27510   0.29701
 Alpha virt. eigenvalues --    0.30085   0.31240   0.31594   0.32146   0.37044
 Alpha virt. eigenvalues --    0.37149   0.39252   0.40431   0.41321   0.41616
 Alpha virt. eigenvalues --    0.42434   0.43202   0.45110   0.47163   0.48263
 Alpha virt. eigenvalues --    0.49702   0.50611   0.52841   0.55141   0.55653
 Alpha virt. eigenvalues --    0.56395   0.59523   0.60250   0.64102   0.64364
 Alpha virt. eigenvalues --    0.66176   0.66901   0.68260   0.68407   0.69013
 Alpha virt. eigenvalues --    0.70306   0.71368   0.73873   0.75834   0.76695
 Alpha virt. eigenvalues --    0.78646   0.81415   0.83215   0.84345   0.85356
 Alpha virt. eigenvalues --    0.88119   0.89620   0.90324   0.97631   0.98201
 Alpha virt. eigenvalues --    1.01075   1.02427   1.05572   1.08410   1.11625
 Alpha virt. eigenvalues --    1.15890   1.17236   1.17461   1.18587   1.19369
 Alpha virt. eigenvalues --    1.20122   1.22418   1.23027   1.24266   1.24764
 Alpha virt. eigenvalues --    1.27731   1.31098   1.32911   1.34141   1.36280
 Alpha virt. eigenvalues --    1.38263   1.38881   1.39637   1.40421   1.43291
 Alpha virt. eigenvalues --    1.44476   1.48071   1.48436   1.51275   1.52069
 Alpha virt. eigenvalues --    1.54767   1.59431   1.61674   1.62796   1.66682
 Alpha virt. eigenvalues --    1.66764   1.69503   1.73499   1.73518   1.77159
 Alpha virt. eigenvalues --    1.81658   1.86694   1.93001   1.99797   2.00357
 Alpha virt. eigenvalues --    2.44511   2.45727   2.47665   2.51151   2.54236
 Alpha virt. eigenvalues --    2.58356   2.61219   2.62065   2.63323   2.65741
 Alpha virt. eigenvalues --    2.71779   2.77573   2.79694   2.82272   2.82665
 Alpha virt. eigenvalues --    2.85226   2.86867   2.90766   2.92618   2.95163
 Alpha virt. eigenvalues --    2.98024   2.99086   3.00443   3.02134   3.05636
 Alpha virt. eigenvalues --    3.08061   3.10334   3.11952   3.13585   3.14430
 Alpha virt. eigenvalues --    3.15200   3.15491   3.15705   3.16914   3.20422
 Alpha virt. eigenvalues --    3.22855   3.23665   3.26334   3.26891   3.29798
 Alpha virt. eigenvalues --    3.30766   3.35265   3.36516   3.36957   3.40165
 Alpha virt. eigenvalues --    3.44401   3.45902   3.48618   3.49350   3.50518
 Alpha virt. eigenvalues --    3.54456   3.54481   3.55371   3.55959   3.59198
 Alpha virt. eigenvalues --    3.60267   3.60935   3.65734   3.70302   3.70839
 Alpha virt. eigenvalues --    3.76029   3.77239   3.80600   3.83231   3.84936
 Alpha virt. eigenvalues --    3.88068   3.88639   3.93612   3.94556   3.96356
 Alpha virt. eigenvalues --    3.97306   3.98628   3.99621   4.02128   4.02991
 Alpha virt. eigenvalues --    4.07630   4.08870   4.09227   4.11586   4.11686
 Alpha virt. eigenvalues --    4.13262   4.13710   4.16042   4.20542   4.23137
 Alpha virt. eigenvalues --    4.25078   4.26920   4.27013   4.30602   4.32910
 Alpha virt. eigenvalues --    4.37314   4.41762   4.41829   4.44239   4.48399
 Alpha virt. eigenvalues --    4.49573   4.54184   4.57039   4.59644   4.67443
 Alpha virt. eigenvalues --    4.69946   4.75906   4.76377   4.81905   4.85240
 Alpha virt. eigenvalues --    4.88425   4.88557   4.91862   4.94064   4.95919
 Alpha virt. eigenvalues --    5.00512   5.00912   5.04705   5.05678   5.13417
 Alpha virt. eigenvalues --    5.14458   5.21470   5.21998   5.32199   5.34181
 Alpha virt. eigenvalues --    5.35535   5.37357   5.40045   5.45647   5.46274
 Alpha virt. eigenvalues --    5.48859   5.52876   5.60189   5.61605   5.68535
 Alpha virt. eigenvalues --    5.73755   5.84813   5.90518   5.98534   6.00764
 Alpha virt. eigenvalues --    6.04390   6.06534   6.11262   6.18372   6.22541
 Alpha virt. eigenvalues --    7.02535  12.92813  13.32570  13.63316  13.79624
          Condensed to atoms (all electrons):
               1          2          3          4          5          6
     1  C    5.225278   0.406449   0.406450   0.405599   0.292288  -0.023066
     2  H    0.406449   0.444708  -0.009405  -0.014067  -0.042183   0.003675
     3  H    0.406450  -0.009405   0.444708  -0.014068  -0.042182  -0.000715
     4  H    0.405599  -0.014067  -0.014068   0.448688  -0.041115  -0.005363
     5  C    0.292288  -0.042183  -0.042182  -0.041115   5.360487   0.397225
     6  H   -0.023066   0.003675  -0.000715  -0.005363   0.397225   0.430328
     7  H   -0.023066  -0.000715   0.003675  -0.005364   0.397226  -0.006705
     8  C   -0.035750   0.002588   0.002587   0.007287   0.245217  -0.031294
     9  H   -0.002310   0.001152  -0.000185  -0.000062  -0.043845  -0.001897
    10  H   -0.002311  -0.000185   0.001152  -0.000062  -0.043845   0.003207
    11  N    0.005107  -0.000628  -0.000628  -0.000631  -0.038512  -0.005463
    12  H   -0.000339   0.000005   0.000083  -0.000033  -0.004864  -0.000371
    13  H   -0.000339   0.000083   0.000005  -0.000033  -0.004864   0.000133
               7          8          9         10         11         12
     1  C   -0.023066  -0.035750  -0.002310  -0.002311   0.005107  -0.000339
     2  H   -0.000715   0.002588   0.001152  -0.000185  -0.000628   0.000005
     3  H    0.003675   0.002587  -0.000185   0.001152  -0.000628   0.000083
     4  H   -0.005364   0.007287  -0.000062  -0.000062  -0.000631  -0.000033
     5  C    0.397226   0.245217  -0.043845  -0.043845  -0.038512  -0.004864
     6  H   -0.006705  -0.031294  -0.001897   0.003207  -0.005463  -0.000371
     7  H    0.430328  -0.031295   0.003207  -0.001897  -0.005463   0.000133
     8  C   -0.031295   5.217464   0.438166   0.438167   0.129325   0.012694
     9  H    0.003207   0.438166   0.447239  -0.013787  -0.064271  -0.001385
    10  H   -0.001897   0.438167  -0.013787   0.447240  -0.064272   0.006360
    11  N   -0.005463   0.129325  -0.064271  -0.064272   7.028318   0.281451
    12  H    0.000133   0.012694  -0.001385   0.006360   0.281451   0.507958
    13  H   -0.000371   0.012694   0.006360  -0.001385   0.281451  -0.030957
              13
     1  C   -0.000339
     2  H    0.000083
     3  H    0.000005
     4  H   -0.000033
     5  C   -0.004864
     6  H    0.000133
     7  H   -0.000371
     8  C    0.012694
     9  H    0.006360
    10  H   -0.001385
    11  N    0.281451
    12  H   -0.030957
    13  H    0.507958
 Mulliken charges:
               1
     1  C   -0.653991
     2  H    0.208524
     3  H    0.208524
     4  H    0.219224
     5  C   -0.431033
     6  H    0.240307
     7  H    0.240308
     8  C   -0.407850
     9  H    0.231620
    10  H    0.231620
    11  N   -0.545783
    12  H    0.229264
    13  H    0.229264
 Sum of Mulliken charges =  -0.00000
 Mulliken charges with hydrogens summed into heavy atoms:
               1
     1  C   -0.017719
     5  C    0.049583
     8  C    0.055390
    11  N   -0.087254
 APT charges:
               1
     1  C    0.047811
     2  H   -0.017083
     3  H   -0.017083
     4  H   -0.022691
     5  C    0.046539
     6  H   -0.042815
     7  H   -0.042815
     8  C    0.351452
     9  H   -0.039166
    10  H   -0.039166
    11  N   -0.500665
    12  H    0.137840
    13  H    0.137840
 Sum of APT charges =  -0.00000
 APT charges with hydrogens summed into heavy atoms:
               1
     1  C   -0.009045
     5  C   -0.039091
     8  C    0.273120
    11  N   -0.224984
 Electronic spatial extent (au):  <R**2>=            400.7701
 Charge=              0.0000 electrons
 Dipole moment (field-independent basis, Debye):
    X=              0.9452    Y=              1.0393    Z=             -0.0001  Tot=              1.4048
 Quadrupole moment (field-independent basis, Debye-Ang):
   XX=            -31.7770   YY=            -27.7979   ZZ=            -25.8528
   XY=             -3.0804   XZ=              0.0002   YZ=              0.0001
 Traceless Quadrupole moment (field-independent basis, Debye-Ang):
   XX=             -3.3011   YY=              0.6780   ZZ=              2.6231
   XY=             -3.0804   XZ=              0.0002   YZ=              0.0001
 Octapole moment (field-independent basis, Debye-Ang**2):
  XXX=              7.5586  YYY=              0.7805  ZZZ=              0.0000  XYY=             -1.1444
  XXY=              9.7065  XXZ=             -0.0006  XZZ=             -4.2167  YZZ=              0.6835
  YYZ=             -0.0000  XYZ=             -0.0002
 Hexadecapole moment (field-independent basis, Debye-Ang**3):
 XXXX=           -448.9775 YYYY=            -86.4352 ZZZZ=            -53.0074 XXXY=            -20.1935
 XXXZ=              0.0019 YYYX=             -2.1796 YYYZ=              0.0015 ZZZX=              0.0013
 ZZZY=              0.0006 XXYY=            -81.3733 XXZZ=            -71.4730 YYZZ=            -20.5760
 XXYZ=              0.0005 YYXZ=             -0.0002 ZZXY=             -3.9606
 N-N= 1.315320369702D+02 E-N=-6.675342951296D+02  KE= 1.733897258943D+02
  Exact polarizability:      56.787      -0.984      46.906      -0.000      -0.000      43.944
 Approx polarizability:      55.721      -1.274      55.037       0.000      -0.000      54.441
 Calling FoFJK, ICntrl=    100127 FMM=F ISym2X=0 I1Cent= 0 IOpClX= 0 NMat=1 NMatS=1 NMatT=0.
 Full mass-weighted force constant matrix:
 Low frequencies ---  -32.8378   -7.3287   -0.0010   -0.0009   -0.0008    8.0010
 Low frequencies ---  131.1426  227.7661  267.4401
 Diagonal vibrational polarizability:
        8.2713966       1.5387612      18.9822743
 Harmonic frequencies (cm**-1), IR intensities (KM/Mole), Raman scattering
 activities (A**4/AMU), depolarization ratios for plane and unpolarized
 incident light, reduced masses (AMU), force constants (mDyne/A),
 and normal coordinates:
                      1                      2                      3
                      A                      A                      A
 Frequencies --    131.1410               227.7585               267.4389
 Red. masses --      1.9360                 1.1093                 1.0989
 Frc consts  --      0.0196                 0.0339                 0.0463
 IR Inten    --      0.2711                11.3837                32.4331
  Atom  AN      X      Y      Z        X      Y      Z        X      Y      Z
     1   6     0.00  -0.00  -0.14    -0.00   0.00   0.03     0.00   0.00   0.00
     2   1    -0.09   0.22  -0.30     0.24   0.36  -0.19    -0.12  -0.17   0.11
     3   1     0.09  -0.22  -0.30    -0.24  -0.36  -0.19     0.12   0.17   0.11
     4   1    -0.00   0.00  -0.03     0.00   0.00   0.55    -0.00   0.00  -0.25
     5   6     0.00   0.00   0.14     0.00  -0.00  -0.07    -0.00  -0.00   0.05
     6   1     0.12  -0.09   0.22    -0.03   0.03  -0.09    -0.00  -0.10   0.13
     7   1    -0.12   0.09   0.22     0.03  -0.03  -0.09     0.00   0.10   0.13
     8   6     0.00   0.00   0.16     0.00   0.00  -0.01    -0.00  -0.00  -0.06
     9   1    -0.12   0.14   0.28     0.06   0.03   0.00     0.04  -0.12  -0.15
    10   1     0.12  -0.14   0.28    -0.06  -0.03   0.00    -0.04   0.12  -0.15
    11   7    -0.00  -0.00  -0.13     0.00   0.00   0.06     0.00   0.00   0.04
    12   1    -0.11   0.19  -0.28     0.15   0.27  -0.11     0.24   0.47  -0.25
    13   1     0.11  -0.19  -0.28    -0.15  -0.27  -0.11    -0.24  -0.47  -0.25
                      4                      5                      6
                      A                      A                      A
 Frequencies --    269.0810               451.7149               743.3643
 Red. masses --      2.4939                 2.8597                 1.0771
 Frc consts  --      0.1064                 0.3438                 0.3507
 IR Inten    --      3.8485                 3.0423                 2.1092
  Atom  AN      X      Y      Z        X      Y      Z        X      Y      Z
     1   6    -0.10  -0.14   0.00    -0.24   0.01  -0.00     0.00  -0.00  -0.01
     2   1    -0.30  -0.19   0.00    -0.36  -0.03   0.01     0.18  -0.13   0.11
     3   1    -0.30  -0.19  -0.00    -0.36  -0.03  -0.01    -0.18   0.13   0.11
     4   1     0.14  -0.40  -0.00    -0.10  -0.14   0.00     0.00   0.00   0.09
     5   6     0.06   0.20   0.00    -0.14   0.05  -0.00    -0.00  -0.00  -0.06
     6   1     0.15   0.20   0.01    -0.24   0.02   0.01     0.04  -0.44   0.27
     7   1     0.15   0.20  -0.01    -0.24   0.02  -0.01    -0.04   0.44   0.27
     8   6     0.09   0.16  -0.00     0.12  -0.11   0.00    -0.00  -0.00  -0.04
     9   1     0.20   0.17  -0.01     0.15  -0.09   0.01     0.04   0.33   0.20
    10   1     0.20   0.17   0.01     0.15  -0.09  -0.01    -0.04  -0.33   0.20
    11   7    -0.03  -0.16   0.00     0.23   0.05  -0.00    -0.00   0.00   0.01
    12   1    -0.21  -0.21   0.01     0.42   0.12  -0.01     0.08  -0.03   0.05
    13   1    -0.21  -0.21  -0.01     0.42   0.12   0.01    -0.08   0.03   0.05
                      7                      8                      9
                      A                      A                      A
 Frequencies --    836.4920               859.1533               915.9782
 Red. masses --      1.6056                 1.1454                 1.4646
 Frc consts  --      0.6619                 0.4981                 0.7240
 IR Inten    --    117.8603                 1.0044                64.6780
  Atom  AN      X      Y      Z        X      Y      Z        X      Y      Z
     1   6    -0.07  -0.01  -0.00    -0.00   0.00   0.05     0.10   0.05  -0.00
     2   1     0.09   0.04  -0.01    -0.33   0.19  -0.13    -0.24  -0.08   0.04
     3   1     0.09   0.04   0.01     0.33  -0.19  -0.13    -0.24  -0.08  -0.04
     4   1    -0.26   0.19  -0.00    -0.00  -0.00  -0.20     0.52  -0.39   0.00
     5   6    -0.02  -0.10   0.00    -0.00  -0.00   0.04     0.00   0.08  -0.00
     6   1    -0.01  -0.09  -0.01    -0.31   0.08  -0.06    -0.22   0.04  -0.00
     7   1    -0.01  -0.09   0.01     0.31  -0.08  -0.06    -0.22   0.04   0.00
     8   6     0.01   0.08  -0.00    -0.00  -0.00  -0.09    -0.05  -0.11   0.00
     9   1    -0.03   0.06  -0.01    -0.06   0.34   0.17    -0.14  -0.12   0.00
    10   1    -0.03   0.06   0.01     0.06  -0.34   0.17    -0.14  -0.12  -0.00
    11   7     0.16   0.05  -0.00     0.00   0.00   0.01     0.05   0.06  -0.00
    12   1    -0.53  -0.33   0.11     0.23  -0.04   0.08    -0.29  -0.16   0.07
    13   1    -0.53  -0.33  -0.11    -0.23   0.04   0.08    -0.29  -0.16  -0.07
                     10                     11                     12
                      A                      A                      A
 Frequencies --   1032.3292              1052.2763              1113.9536
 Red. masses --      1.0993                 3.0250                 2.7390
 Frc consts  --      0.6903                 1.9735                 2.0026
 IR Inten    --      0.0320                 0.3023                20.1643
  Atom  AN      X      Y      Z        X      Y      Z        X      Y      Z
     1   6    -0.00   0.00   0.05    -0.20   0.16  -0.00     0.03   0.02  -0.00
     2   1    -0.19   0.12  -0.07    -0.41   0.11   0.01    -0.13  -0.05   0.03
     3   1     0.19  -0.12  -0.07    -0.41   0.11  -0.01    -0.13  -0.05  -0.03
     4   1    -0.00  -0.00  -0.12    -0.07   0.02  -0.00     0.16  -0.12   0.00
     5   6    -0.00  -0.00  -0.07     0.29  -0.08   0.00    -0.06  -0.13   0.00
     6   1    -0.25  -0.20   0.05     0.42  -0.07   0.00    -0.40  -0.21   0.01
     7   1     0.25   0.20   0.05     0.42  -0.07  -0.00    -0.40  -0.21  -0.01
     8   6     0.00   0.00   0.03     0.04  -0.12   0.00     0.30   0.03  -0.00
     9   1     0.36  -0.04  -0.05    -0.08  -0.15  -0.00     0.34   0.06   0.01
    10   1    -0.36   0.04  -0.05    -0.08  -0.15   0.00     0.34   0.06  -0.01
    11   7    -0.00   0.00   0.02    -0.08   0.04  -0.00    -0.18   0.08  -0.00
    12   1    -0.42   0.07  -0.11    -0.15  -0.01   0.02    -0.23   0.10  -0.01
    13   1     0.42  -0.07  -0.11    -0.15  -0.01  -0.02    -0.23   0.10   0.01
                     13                     14                     15
                      A                      A                      A
 Frequencies --   1147.1678              1242.0604              1324.4965
 Red. masses --      2.4803                 1.5173                 1.1638
 Frc consts  --      1.9232                 1.3792                 1.2029
 IR Inten    --      2.9081                 0.0150                 0.4377
  Atom  AN      X      Y      Z        X      Y      Z        X      Y      Z
     1   6     0.02   0.13  -0.00    -0.00  -0.00  -0.12     0.00   0.00   0.05
     2   1    -0.37  -0.05   0.07     0.27  -0.22   0.09    -0.11   0.08  -0.02
     3   1    -0.37  -0.05  -0.07    -0.27   0.22   0.09     0.11  -0.08  -0.02
     4   1     0.36  -0.24   0.00     0.00   0.00   0.23     0.00  -0.00  -0.06
     5   6     0.02  -0.20   0.00     0.00   0.00   0.15    -0.00  -0.00   0.03
     6   1    -0.13  -0.20  -0.02    -0.30   0.25  -0.08     0.57   0.16  -0.02
     7   1    -0.13  -0.20   0.02     0.30  -0.25  -0.08    -0.57  -0.16  -0.02
     8   6    -0.08   0.22  -0.00    -0.00  -0.00  -0.09    -0.00  -0.00  -0.10
     9   1    -0.19   0.18  -0.02     0.21   0.21   0.05     0.22   0.22   0.03
    10   1    -0.19   0.18   0.02    -0.21  -0.21   0.05    -0.21  -0.22   0.03
    11   7     0.07  -0.11   0.00    -0.00   0.00   0.03     0.00   0.00   0.02
    12   1     0.26   0.05  -0.07    -0.24   0.06  -0.06    -0.17   0.04  -0.04
    13   1     0.26   0.05   0.07     0.24  -0.06  -0.06     0.17  -0.04  -0.04
                     16                     17                     18
                      A                      A                      A
 Frequencies --   1326.7356              1384.9254              1402.4916
 Red. masses --      1.3335                 1.1664                 1.4834
 Frc consts  --      1.3830                 1.3181                 1.7191
 IR Inten    --      4.7935                 0.1011                 5.9459
  Atom  AN      X      Y      Z        X      Y      Z        X      Y      Z
     1   6     0.02   0.06  -0.00    -0.00  -0.00   0.01    -0.03  -0.01   0.00
     2   1    -0.04  -0.08   0.09     0.01   0.03  -0.01     0.05   0.06  -0.04
     3   1    -0.04  -0.08  -0.09    -0.01  -0.03  -0.01     0.05   0.06   0.04
     4   1     0.22  -0.15   0.00    -0.00  -0.00  -0.07    -0.04  -0.00   0.00
     5   6    -0.13  -0.06  -0.00     0.00  -0.00  -0.03     0.13  -0.00   0.00
     6   1     0.49   0.05  -0.00    -0.02  -0.05   0.00    -0.37  -0.06  -0.02
     7   1     0.49   0.05   0.00     0.02   0.05   0.00    -0.37  -0.06   0.02
     8   6    -0.06  -0.03   0.00    -0.00  -0.00  -0.07    -0.15  -0.02   0.00
     9   1     0.43   0.07   0.01    -0.57   0.04   0.02     0.55   0.14   0.03
    10   1     0.43   0.07  -0.01     0.57  -0.04   0.02     0.55   0.14  -0.03
    11   7     0.00   0.03  -0.00     0.00   0.00   0.09     0.01   0.02  -0.00
    12   1    -0.02  -0.04   0.04    -0.38   0.12  -0.07     0.04  -0.04   0.04
    13   1    -0.02  -0.04  -0.04     0.38  -0.12  -0.07     0.04  -0.04  -0.04
                     19                     20                     21
                      A                      A                      A
 Frequencies --   1412.2683              1488.2595              1499.7973
 Red. masses --      1.2487                 1.0698                 1.0661
 Frc consts  --      1.4674                 1.3961                 1.4129
 IR Inten    --      3.7407                 0.0002                 0.7577
  Atom  AN      X      Y      Z        X      Y      Z        X      Y      Z
     1   6    -0.13   0.06  -0.00    -0.00   0.01   0.00     0.01   0.03   0.00
     2   1     0.53  -0.10   0.19     0.01  -0.15   0.11    -0.04  -0.36   0.26
     3   1     0.53  -0.10  -0.19     0.01  -0.15  -0.11    -0.04  -0.36  -0.26
     4   1     0.35  -0.43   0.00    -0.06   0.06  -0.00    -0.18   0.22  -0.00
     5   6     0.02  -0.00  -0.00     0.02  -0.06   0.00     0.02  -0.01   0.00
     6   1    -0.04  -0.03   0.01    -0.09   0.43  -0.35    -0.05   0.12  -0.09
     7   1    -0.04  -0.03  -0.01    -0.09   0.43   0.35    -0.05   0.12   0.09
     8   6     0.02   0.01  -0.00    -0.00   0.04  -0.00     0.01  -0.06   0.00
     9   1    -0.08   0.01   0.01     0.06  -0.28  -0.23    -0.09   0.36   0.31
    10   1    -0.08   0.01  -0.01     0.06  -0.28   0.23    -0.09   0.36  -0.31
    11   7    -0.00  -0.01   0.00    -0.00   0.00   0.00     0.00  -0.00  -0.00
    12   1     0.00   0.02  -0.01     0.01  -0.00   0.01     0.00  -0.02   0.01
    13   1     0.00   0.02   0.01     0.01  -0.00  -0.01     0.00  -0.02  -0.01
                     22                     23                     24
                      A                      A                      A
 Frequencies --   1505.5133              1513.3968              1654.7659
 Red. masses --      1.0389                 1.0852                 1.0922
 Frc consts  --      1.3874                 1.4644                 1.7620
 IR Inten    --      7.5318                 6.8923                26.0790
  Atom  AN      X      Y      Z        X      Y      Z        X      Y      Z
     1   6     0.00  -0.00  -0.05    -0.01  -0.03   0.00     0.00  -0.00  -0.00
     2   1    -0.45  -0.20   0.05     0.02   0.36  -0.26    -0.00  -0.00   0.00
     3   1     0.45   0.20   0.05     0.02   0.36   0.26    -0.00  -0.00  -0.00
     4   1    -0.00   0.00   0.70     0.17  -0.21  -0.00    -0.01   0.01  -0.00
     5   6     0.00  -0.00  -0.02    -0.01  -0.06   0.00     0.00   0.00   0.00
     6   1     0.04  -0.03  -0.00     0.01   0.29  -0.24     0.00   0.02  -0.01
     7   1    -0.04   0.03  -0.00     0.01   0.29   0.24     0.00   0.02   0.01
     8   6     0.00  -0.00  -0.00     0.02  -0.04   0.00    -0.02  -0.02   0.00
     9   1    -0.04  -0.01  -0.00    -0.07   0.26   0.22     0.06   0.00   0.01
    10   1     0.04   0.01  -0.00    -0.07   0.26  -0.22     0.06   0.00  -0.01
    11   7    -0.00   0.00   0.00    -0.00  -0.00  -0.00     0.05  -0.05   0.00
    12   1    -0.02   0.01  -0.00    -0.00  -0.01   0.01    -0.33   0.46  -0.41
    13   1     0.02  -0.01  -0.00    -0.00  -0.01  -0.01    -0.33   0.46   0.41
                     25                     26                     27
                      A                      A                      A
 Frequencies --   3042.2692              3054.4928              3059.2308
 Red. masses --      1.0590                 1.0561                 1.0395
 Frc consts  --      5.7747                 5.8052                 5.7319
 IR Inten    --      5.8140                28.2168                50.8872
  Atom  AN      X      Y      Z        X      Y      Z        X      Y      Z
     1   6     0.00   0.01   0.00    -0.02   0.02  -0.00    -0.04   0.03   0.00
     2   1     0.01  -0.02  -0.04     0.03  -0.15  -0.22     0.06  -0.32  -0.46
     3   1     0.01  -0.02   0.04     0.03  -0.15   0.22     0.06  -0.32   0.46
     4   1    -0.02  -0.03   0.00     0.12   0.12  -0.00     0.32   0.32  -0.00
     5   6     0.01  -0.06  -0.00     0.01  -0.02   0.00    -0.00   0.01  -0.00
     6   1    -0.06   0.36   0.53    -0.03   0.14   0.21     0.01  -0.08  -0.11
     7   1    -0.06   0.36  -0.53    -0.03   0.14  -0.21     0.01  -0.08   0.11
     8   6    -0.00   0.03   0.00     0.01  -0.06  -0.00    -0.00   0.02   0.00
     9   1     0.03  -0.17   0.24    -0.06   0.34  -0.48     0.02  -0.15   0.21
    10   1     0.03  -0.17  -0.24    -0.06   0.34   0.48     0.02  -0.15  -0.21
    11   7    -0.00  -0.00  -0.00     0.00   0.00   0.00    -0.00  -0.00  -0.00
    12   1    -0.00   0.00   0.00    -0.00  -0.01  -0.01     0.00   0.00   0.00
    13   1    -0.00   0.00  -0.00    -0.00  -0.01   0.01     0.00   0.00  -0.00
                     28                     29                     30
                      A                      A                      A
 Frequencies --   3069.9431              3096.7953              3124.0125
 Red. masses --      1.1024                 1.1066                 1.1028
 Frc consts  --      6.1211                 6.2529                 6.3413
 IR Inten    --      0.6011                27.1490                45.6955
  Atom  AN      X      Y      Z        X      Y      Z        X      Y      Z
     1   6     0.00  -0.00   0.02     0.00   0.00   0.03    -0.00  -0.00  -0.09
     2   1     0.01  -0.07  -0.10     0.02  -0.12  -0.16    -0.08   0.39   0.53
     3   1    -0.01   0.07  -0.10    -0.02   0.12  -0.16     0.08  -0.39   0.53
     4   1    -0.00  -0.00   0.00    -0.00  -0.00   0.01     0.00   0.00  -0.02
     5   6    -0.00  -0.00  -0.08    -0.00  -0.00  -0.05     0.00  -0.00  -0.03
     6   1    -0.06   0.34   0.46    -0.03   0.21   0.28    -0.02   0.12   0.17
     7   1     0.06  -0.34   0.46     0.03  -0.21   0.28     0.02  -0.12   0.17
     8   6     0.00  -0.00   0.05    -0.00   0.00  -0.08    -0.00  -0.00  -0.01
     9   1    -0.04   0.23  -0.31     0.05  -0.34   0.46     0.01  -0.06   0.09
    10   1     0.04  -0.23  -0.31    -0.05   0.34   0.46    -0.01   0.06   0.09
    11   7     0.00   0.00  -0.00    -0.00  -0.00   0.00     0.00   0.00   0.00
    12   1    -0.00   0.01   0.01    -0.00  -0.01  -0.01    -0.00  -0.00  -0.00
    13   1     0.00  -0.01   0.01     0.00   0.01  -0.01     0.00   0.00  -0.00
                     31                     32                     33
                      A                      A                      A
 Frequencies --   3135.4867              3522.9032              3604.2221
 Red. masses --      1.1014                 1.0493                 1.0931
 Frc consts  --      6.3795                 7.6729                 8.3661
 IR Inten    --     25.0469                 1.0851                 3.5767
  Atom  AN      X      Y      Z        X      Y      Z        X      Y      Z
     1   6    -0.05  -0.08   0.00    -0.00  -0.00   0.00     0.00   0.00   0.00
     2   1    -0.05   0.18   0.28    -0.00   0.00   0.00    -0.00  -0.00  -0.00
     3   1    -0.05   0.18  -0.28    -0.00   0.00  -0.00     0.00   0.00  -0.00
     4   1     0.63   0.60  -0.00    -0.00   0.00   0.00     0.00   0.00   0.00
     5   6     0.00  -0.01   0.00    -0.00   0.00  -0.00     0.00  -0.00   0.00
     6   1    -0.01   0.03   0.04     0.00   0.00  -0.00     0.00   0.00  -0.00
     7   1    -0.01   0.03  -0.04     0.00   0.00   0.00    -0.00  -0.00  -0.00
     8   6     0.00  -0.00   0.00    -0.00  -0.00   0.00     0.00  -0.00  -0.00
     9   1     0.00   0.00  -0.01     0.00   0.01  -0.01     0.00  -0.01   0.01
    10   1     0.00   0.00   0.01     0.00   0.01   0.01    -0.00   0.01   0.01
    11   7     0.00   0.00  -0.00     0.02  -0.05  -0.00    -0.00  -0.00  -0.08
    12   1    -0.00  -0.00  -0.00    -0.12   0.38   0.59    -0.11   0.41   0.56
    13   1    -0.00  -0.00   0.00    -0.12   0.38  -0.59     0.11  -0.41   0.56

 -------------------
 - Thermochemistry -
 -------------------
 Temperature   298.150 Kelvin.  Pressure   1.00000 Atm.
 Atom     1 has atomic number  6 and mass  12.00000
 Atom     2 has atomic number  1 and mass   1.00783
 Atom     3 has atomic number  1 and mass   1.00783
 Atom     4 has atomic number  1 and mass   1.00783
 Atom     5 has atomic number  6 and mass  12.00000
 Atom     6 has atomic number  1 and mass   1.00783
 Atom     7 has atomic number  1 and mass   1.00783
 Atom     8 has atomic number  6 and mass  12.00000
 Atom     9 has atomic number  1 and mass   1.00783
 Atom    10 has atomic number  1 and mass   1.00783
 Atom    11 has atomic number  7 and mass  14.00307
 Atom    12 has atomic number  1 and mass   1.00783
 Atom    13 has atomic number  1 and mass   1.00783
 Molecular mass:    59.07350 amu.
 Principal axes and moments of inertia in atomic units:
                           1         2         3
     Eigenvalues --    72.49235 485.21676 515.00458
           X            0.99988  -0.01546   0.00000
           Y            0.01546   0.99988   0.00006
           Z           -0.00000  -0.00006   1.00000
 This molecule is an asymmetric top.
 Rotational symmetry number  1.
 Rotational temperatures (Kelvin)      1.19480     0.17851     0.16818
 Rotational constants (GHZ):          24.89561     3.71945     3.50432
 Zero-point vibrational energy     320072.3 (Joules/Mol)
                                   76.49912 (Kcal/Mol)
 Warning -- explicit consideration of   5 degrees of freedom as
           vibrations may cause significant error
 Vibrational temperatures:    188.68   327.69   384.78   387.15   649.92
          (Kelvin)           1069.54  1203.53  1236.13  1317.89  1485.29
                             1513.99  1602.73  1650.52  1787.05  1905.66
                             1908.88  1992.60  2017.87  2031.94  2141.27
                             2157.87  2166.10  2177.44  2380.84  4377.15
                             4394.73  4401.55  4416.96  4455.60  4494.76
                             4511.27  5068.67  5185.67
 
 Zero-point correction=                           0.121909 (Hartree/Particle)
 Thermal correction to Energy=                    0.127586
 Thermal correction to Enthalpy=                  0.128530
 Thermal correction to Gibbs Free Energy=         0.094045
 Sum of electronic and zero-point Energies=           -174.340592
 Sum of electronic and thermal Energies=              -174.334915
 Sum of electronic and thermal Enthalpies=            -174.333970
 Sum of electronic and thermal Free Energies=         -174.368456
 
                     E (Thermal)             CV                S
                      KCal/Mol        Cal/Mol-Kelvin    Cal/Mol-Kelvin
 Total                   80.062             19.168             72.581
 Electronic               0.000              0.000              0.000
 Translational            0.889              2.981             38.149
 Rotational               0.889              2.981             24.408
 Vibrational             78.284             13.206             10.023
 Vibration     1          0.612              1.922              2.929
 Vibration     2          0.651              1.799              1.897
 Vibration     3          0.673              1.733              1.613
 Vibration     4          0.673              1.730              1.602
 Vibration     5          0.810              1.357              0.791
                       Q            Log10(Q)             Ln(Q)
 Total Bot       0.552460D-43        -43.257699        -99.604534
 Total V=0       0.655467D+13         12.816551         29.511198
 Vib (Bot)       0.642529D-55        -55.192107       -127.084524
 Vib (Bot)    1  0.155410D+01          0.191480          0.440899
 Vib (Bot)    2  0.865612D+00         -0.062677         -0.144319
 Vib (Bot)    3  0.723577D+00         -0.140515         -0.323549
 Vib (Bot)    4  0.718563D+00         -0.143535         -0.330502
 Vib (Bot)    5  0.379107D+00         -0.421239         -0.969938
 Vib (V=0)       0.762329D+01          0.882143          2.031208
 Vib (V=0)    1  0.213256D+01          0.328900          0.757321
 Vib (V=0)    2  0.149964D+01          0.175988          0.405226
 Vib (V=0)    3  0.137952D+01          0.139729          0.321739
 Vib (V=0)    4  0.137540D+01          0.138430          0.318748
 Vib (V=0)    5  0.112747D+01          0.052106          0.119978
 Electronic      0.100000D+01          0.000000          0.000000
 Translational   0.178461D+08          7.251543         16.697295
 Rotational      0.481798D+05          4.682865         10.782695
 ***** Axes restored to original set *****
 -------------------------------------------------------------------
 Center     Atomic                   Forces (Hartrees/Bohr)
 Number     Number              X              Y              Z
 -------------------------------------------------------------------
      1        6           0.000006639   -0.000018135    0.000000053
      2        1           0.000013241    0.000010164    0.000017674
      3        1           0.000013235    0.000009955   -0.000017769
      4        1          -0.000019560   -0.000009620    0.000000086
      5        6          -0.000081663    0.000020443    0.000000066
      6        1           0.000018870    0.000000296   -0.000020218
      7        1           0.000018746    0.000000112    0.000020188
      8        6           0.000154784   -0.000082620   -0.000000849
      9        1          -0.000028237    0.000015328   -0.000027505
     10        1          -0.000028165    0.000015430    0.000028027
     11        7          -0.000053517   -0.000008024    0.000000645
     12        1          -0.000007253    0.000023256    0.000021115
     13        1          -0.000007119    0.000023415   -0.000021512
 -------------------------------------------------------------------
 Cartesian Forces:  Max     0.000154784 RMS     0.000035827

 GradGradGradGradGradGradGradGradGradGradGradGradGradGradGradGradGradGrad
 Berny optimization.
 Search for a local minimum.
 Step number   1 out of a maximum of    2
 All quantities printed in internal units (Hartrees-Bohrs-Radians)
 Second derivative matrix not updated -- analytic derivatives used.
 ITU=  0
     Eigenvalues ---    0.00116   0.00259   0.00319   0.00667   0.01753
     Eigenvalues ---    0.02587   0.03480   0.04448   0.04930   0.06442
     Eigenvalues ---    0.07512   0.07917   0.08400   0.09700   0.10383
     Eigenvalues ---    0.11394   0.13668   0.13783   0.16697   0.17662
     Eigenvalues ---    0.20063   0.24623   0.40321   0.51607   0.57666
     Eigenvalues ---    0.67950   0.72504   0.76639   0.76879   0.85217
     Eigenvalues ---    0.86671   0.89929   1.02674
 Angle between quadratic step and forces=  75.79 degrees.
 Linear search not attempted -- first point.
 B after Tr=    -0.000023   -0.000046    0.000001
         Rot=    1.000000    0.000000   -0.000000    0.000002 Ang=   0.00 deg.
 Variable       Old X    -DE/DX   Delta X   Delta X   Delta X     New X
                                 (Linear)    (Quad)   (Total)
    X1        3.61359   0.00001   0.00000   0.00016   0.00014   3.61373
    Y1       -0.21948  -0.00002   0.00000   0.00014   0.00008  -0.21940
    Z1        0.00001   0.00000   0.00000  -0.00001  -0.00001  -0.00000
    X2        3.86532   0.00001   0.00000   0.00089   0.00086   3.86618
    Y2       -1.41097   0.00001   0.00000   0.00036   0.00030  -1.41067
    Z2       -1.66369   0.00002   0.00000   0.00002   0.00002  -1.66368
    X3        3.86536   0.00001   0.00000   0.00086   0.00083   3.86620
    Y3       -1.41067   0.00001   0.00000   0.00027   0.00021  -1.41046
    Z3        1.66391  -0.00002   0.00000  -0.00009  -0.00009   1.66382
    X4        5.11356  -0.00002   0.00000  -0.00052  -0.00054   5.11302
    Y4        1.18984  -0.00001   0.00000   0.00080   0.00074   1.19058
    Z4       -0.00014   0.00000   0.00000   0.00004   0.00004  -0.00010
    X5        1.00602  -0.00008   0.00000  -0.00021  -0.00023   1.00579
    Y5        1.00026   0.00002   0.00000  -0.00046  -0.00051   0.99974
    Z5       -0.00007   0.00000   0.00000   0.00000   0.00000  -0.00007
    X6        0.79245   0.00002   0.00000   0.00000  -0.00001   0.79244
    Y6        2.21728   0.00000   0.00000  -0.00035  -0.00040   2.21688
    Z6        1.65605  -0.00002   0.00000  -0.00012  -0.00012   1.65593
    X7        0.79245   0.00002   0.00000  -0.00001  -0.00003   0.79242
    Y7        2.21708   0.00000   0.00000  -0.00036  -0.00041   2.21667
    Z7       -1.65634   0.00002   0.00000   0.00012   0.00012  -1.65622
    X8       -1.11050   0.00015   0.00000  -0.00002  -0.00005  -1.11054
    Y8       -0.95814  -0.00008   0.00000  -0.00043  -0.00047  -0.95861
    Z8        0.00005  -0.00000   0.00000   0.00001   0.00001   0.00007
    X9       -0.90583  -0.00003   0.00000  -0.00075  -0.00078  -0.90660
    Y9       -2.18131   0.00002   0.00000  -0.00040  -0.00044  -2.18175
    Z9        1.65080  -0.00003   0.00000  -0.00002  -0.00002   1.65079
   X10       -0.90585  -0.00003   0.00000  -0.00074  -0.00077  -0.90662
   Y10       -2.18149   0.00002   0.00000  -0.00043  -0.00047  -2.18196
   Z10       -1.65057   0.00003   0.00000   0.00007   0.00007  -1.65049
   X11       -3.67841  -0.00005   0.00000  -0.00012  -0.00015  -3.67856
   Y11        0.04549  -0.00001   0.00000   0.00029   0.00026   0.04575
   Z11        0.00002   0.00000   0.00000  -0.00000  -0.00000   0.00002
   X12       -3.96162  -0.00001   0.00000   0.00038   0.00036  -3.96127
   Y12        1.15306   0.00002   0.00000   0.00061   0.00058   1.15364
   Z12        1.53530   0.00002   0.00000  -0.00004  -0.00004   1.53526
   X13       -3.96164  -0.00001   0.00000   0.00038   0.00036  -3.96128
   Y13        1.15290   0.00002   0.00000   0.00057   0.00054   1.15344
   Z13       -1.53537  -0.00002   0.00000   0.00000   0.00000  -1.53537
         Item               Value     Threshold  Converged?
 Maximum Force            0.000155     0.000450     YES
 RMS     Force            0.000036     0.000300     YES
 Maximum Displacement     0.000861     0.001800     YES
 RMS     Displacement     0.000390     0.001200     YES
 Predicted change in Energy=-6.713698D-08
 Optimization completed.
    -- Stationary point found.
 GradGradGradGradGradGradGradGradGradGradGradGradGradGradGradGradGradGrad


 ----------------------------------------------------------------------

 Electric dipole moment (input orientation):
 (Debye = 10**-18 statcoulomb cm , SI units = C m)
                  (au)            (Debye)         (10**-30 SI)
   Tot        0.552705D+00      0.140484D+01      0.468603D+01
   x          0.371877D+00      0.945217D+00      0.315291D+01
   y          0.408889D+00      0.103929D+01      0.346671D+01
   z         -0.230703D-04     -0.586390D-04     -0.195599D-03

 Dipole polarizability, Alpha (input orientation).
 (esu units = cm**3 , SI units = C**2 m**2 J**-1)
 Alpha(0;0):
               (au)            (10**-24 esu)      (10**-40 SI)
   iso        0.492125D+02      0.729254D+01      0.811404D+01
   aniso      0.117715D+02      0.174436D+01      0.194086D+01
   xx         0.567868D+02      0.841494D+01      0.936288D+01
   yx        -0.984131D+00     -0.145833D+00     -0.162261D+00
   yy         0.469061D+02      0.695077D+01      0.773378D+01
   zx         0.000000D+00      0.000000D+00      0.000000D+00
   zy        -0.186993D-03     -0.277095D-04     -0.308309D-04
   zz         0.439445D+02      0.651190D+01      0.724547D+01

 ----------------------------------------------------------------------

 Dipole orientation:
     6          2.08689400         -1.89812645          2.26896472
     1          3.93714650         -1.33199427          1.55695075
     1          1.69810491         -3.79363015          1.55705804
     1          2.20636565         -2.00670529          4.32080192
     6          0.05271525         -0.04792896          1.41686766
     1         -1.78426559         -0.61588834          2.17345474
     1          0.44451496          1.83451440          2.17343935
     6         -0.13084790          0.11901177         -1.45600303
     1         -0.52064066         -1.75778979         -2.22326181
     1          1.70069691          0.68448245         -2.22327195
     7         -2.03577773          1.85161624         -2.44129623
     1         -3.77508308          1.35817032         -1.81253446
     1         -1.70897214          3.62978127         -1.81253770

 Electric dipole moment (dipole orientation):
 (Debye = 10**-18 statcoulomb cm , SI units = C m)
                  (au)            (Debye)         (10**-30 SI)
   Tot        0.552705D+00      0.140484D+01      0.468603D+01
   x          0.000000D+00      0.000000D+00      0.000000D+00
   y          0.000000D+00      0.000000D+00      0.000000D+00
   z          0.552705D+00      0.140484D+01      0.468603D+01

 Dipole polarizability, Alpha (dipole orientation).
 (esu units = cm**3 , SI units = C**2 m**2 J**-1)
 Alpha(0;0):
               (au)            (10**-24 esu)      (10**-40 SI)
   iso        0.492125D+02      0.729254D+01      0.811404D+01
   aniso      0.117715D+02      0.174436D+01      0.194086D+01
   xx         0.490609D+02      0.727007D+01      0.808905D+01
   yx        -0.465359D+01     -0.689591D+00     -0.767274D+00
   yy         0.481771D+02      0.713912D+01      0.794334D+01
   zx         0.356951D+01      0.528946D+00      0.588532D+00
   zy        -0.324657D+01     -0.481092D+00     -0.535287D+00
   zz         0.503994D+02      0.746842D+01      0.830974D+01

 ----------------------------------------------------------------------
 Unable to Open any file for archive entry.
 1\1\GINC-C34\Freq\RM062X\Jun-CC-pVTZ\C3H9N1\SHANGYL\15-Jun-2021\0\\# f
 req jun-cc-pvtz m062x\\s000001\\0,1\C,1.91223,-0.116144,0.000003\H,2.0
 45441,-0.746651,-0.880389\H,2.045462,-0.746494,0.880504\H,2.705981,0.6
 29636,-0.000073\C,0.532363,0.529313,-0.000037\H,0.419347,1.173336,0.87
 6344\H,0.419346,1.173227,-0.876498\C,-0.587649,-0.507025,0.000029\H,-0
 .479342,-1.1543,0.873567\H,-0.479355,-1.154394,-0.873442\N,-1.946533,0
 .024073,0.000009\H,-2.096401,0.610175,0.812445\H,-2.096412,0.610091,-0
 .812485\\Version=ES64L-G16RevC.01\State=1-A\HF=-174.4625009\RMSD=4.464
 e-09\RMSF=3.583e-05\ZeroPoint=0.1219091\Thermal=0.1275863\ETot=-174.33
 49146\HTot=-174.3339704\GTot=-174.3684558\Dipole=0.3718771,0.4088893,-
 0.0000231\DipoleDeriv=-0.0167149,0.0046591,-0.0000007,-0.0199889,0.067
 7962,0.0000017,0.0000018,0.0000021,0.0923529,0.0310221,0.0086604,-0.01
 22345,0.050331,-0.0125519,-0.087117,0.0342898,-0.0997919,-0.0697179,0.
 0310197,0.0086651,0.0122308,0.0503263,-0.0125191,0.0871053,-0.0343008,
 0.0997817,-0.0697492,-0.1072876,-0.0684154,0.000007,-0.1021028,-0.0309
 306,0.0000105,0.000011,0.00001,0.0701454,-0.0516326,-0.0327665,0.00000
 41,-0.0812073,0.0499732,0.0000056,0.0000062,0.0000049,0.141276,-0.0099
 499,0.0329989,0.0354542,0.0176459,-0.0398806,-0.0835471,0.032754,-0.11
 5879,-0.0786139,-0.0099513,0.032993,-0.0354588,0.0176419,-0.0398556,0.
 0835429,-0.0327568,0.1158737,-0.0786384,0.6043176,-0.0239851,-0.000002
 6,-0.1067463,0.2689742,-0.0000036,0.0000023,-0.0000034,0.1810651,-0.01
 37299,0.0232978,-0.0197177,0.0131419,-0.0339879,0.078779,-0.0380869,0.
 1109945,-0.0697797,-0.013729,0.0232993,0.019715,0.0131452,-0.034009,-0
 .0787829,0.0380849,-0.1109996,-0.0697603,-0.8834026,-0.0622868,0.00000
 77,-0.0605734,-0.3798342,0.0000077,0.0000066,0.0000081,-0.2387574,0.22
 00186,0.0264356,-0.0782627,0.1041907,0.0984035,-0.0946064,-0.0413762,-
 0.0774838,0.0950983,0.2200199,0.0264447,0.0782582,0.1041959,0.0984219,
 0.0946043,0.0413641,0.0774828,0.095079\Polar=56.7868354,-0.9841305,46.
 9061327,-0.0000063,-0.000187,43.9444961\Quadrupole=-2.4543105,0.504089
 1,1.9502214,-2.2901789,0.0001409,0.0000887\PG=C01 [X(C3H9N1)]\NImag=0\
 \0.50266656,0.04370558,0.55529170,-0.00000302,0.00000036,0.56994711,-0
 .04974477,0.01575201,0.02333680,0.05480053,0.01593053,-0.13431531,-0.1
 2305383,-0.02081937,0.14388058,0.02393625,-0.12331942,-0.22309019,-0.0
 2638599,0.13645796,0.23978367,-0.04974612,0.01575084,-0.02334390,-0.00
 083880,-0.00240137,0.00249720,0.05480185,0.01592922,-0.13427188,0.1230
 3821,-0.00240220,0.01208279,-0.01567802,-0.02081820,0.14383268,-0.0239
 4352,0.12330405,-0.22313386,-0.00249727,0.01567218,-0.02081203,0.02639
 415,-0.13644089,0.23983181,-0.18637493,-0.13580509,0.00001390,0.002929
 24,0.00321309,-0.00073385,0.00292977,0.00321366,0.00073326,0.20419941,
 -0.13674526,-0.17771605,0.00001306,-0.01241230,-0.01287019,0.00116557,
 -0.01240868,-0.01286710,-0.00116289,0.14692528,0.19062290,0.00001411,0
 .00001312,-0.04711565,-0.02024566,-0.01844393,0.00058756,0.02024785,0.
 01844622,0.00058400,-0.00001509,-0.00001446,0.04630512,-0.17740614,0.0
 4860999,-0.00000313,-0.00426769,0.00228174,0.00044265,-0.00426830,0.00
 228202,-0.00044266,-0.02117603,0.01311947,-0.00000101,0.46248646,0.047
 20823,-0.10480986,0.00000172,0.01780999,-0.00942141,0.00077498,0.01780
 556,-0.00941974,-0.00077368,-0.02224637,0.01267633,-0.00000096,-0.0210
 1994,0.54073142,-0.00000303,0.00000138,-0.07990380,0.02638448,-0.01215
 935,0.00099099,-0.02638742,0.01216111,0.00098973,0.00000204,-0.0000013
 0,-0.00154924,0.00000139,0.00000322,0.59774202,-0.00470196,0.01882125,
 0.02617546,-0.00567789,0.00292695,-0.00045931,0.00136209,-0.00045726,-
 0.00054461,0.00105511,-0.00087750,0.00012336,-0.04817019,0.01504361,0.
 02029689,0.05703223,0.00191739,-0.00804855,-0.01059245,0.00242388,-0.0
 0038035,0.00019379,-0.00045721,-0.00004693,-0.00002683,-0.00002729,0.0
 0058350,0.00037722,0.01462861,-0.13330038,-0.11885694,-0.01574073,0.14
 627037,-0.00013792,0.00109493,0.00111907,-0.00027174,0.00056459,0.0015
 7535,0.00042841,-0.00009502,0.00070329,0.00058294,-0.00002735,0.000012
 13,0.02090325,-0.11975024,-0.21868509,-0.02294391,0.13254984,0.2340069
 8,-0.00470221,0.01881767,-0.02617802,0.00136197,-0.00045713,0.00054469
 ,-0.00567784,0.00292714,0.00045900,0.00105521,-0.00087749,-0.00012326,
 -0.04817086,0.01504116,-0.02029887,-0.00036501,-0.00206804,0.00238475,
 0.05703294,0.00191736,-0.00804714,0.01059363,-0.00045726,-0.00004697,0
 .00002693,0.00242382,-0.00038043,-0.00019360,-0.00002741,0.00058354,-0
 .00037732,0.01462621,-0.13327111,0.11884660,-0.00206834,0.01134393,-0.
 01518156,-0.01573788,0.14623759,0.00013758,-0.00109370,0.00111785,-0.0
 0042837,0.00009515,0.00070316,0.00027140,-0.00056428,0.00157546,-0.000
 58295,0.00002724,0.00001226,-0.02090519,0.11973979,-0.21871536,-0.0023
 8453,0.01517747,-0.02173342,0.02294622,-0.13253913,0.23404052,-0.02917
 662,-0.01676824,0.00000132,0.00153096,-0.00102176,-0.00047773,0.001530
 98,-0.00102153,0.00047779,-0.00268244,0.00166825,-0.00000020,-0.122310
 64,-0.05963486,0.00000372,-0.00024781,0.00190656,0.00106917,-0.0002476
 0,0.00190657,-0.00106946,0.46886543,0.01107371,0.01336301,-0.00000096,
 0.00131194,0.00039707,-0.00006089,0.00131176,0.00039694,0.00006082,0.0
 0584987,-0.00184831,0.00000013,-0.05462959,-0.14632149,0.00000419,-0.0
 1587587,-0.01652238,-0.00017339,-0.01587325,-0.01651978,0.00017526,-0.
 03246708,0.54727762,-0.00000053,-0.00000088,-0.00077622,0.00139852,0.0
 0044194,0.00006545,-0.00139865,-0.00044205,0.00006542,-0.00000031,0.00
 000010,0.00006475,0.00000330,0.00000412,-0.08345475,-0.02113268,-0.021
 17966,-0.00027199,0.02113466,0.02118159,-0.00027456,0.00000304,0.00000
 302,0.62707941,0.00179315,-0.00059644,0.00082697,-0.00002861,0.0000776
 9,0.00004435,-0.00037068,0.00036355,-0.00059387,0.00021524,0.00016405,
 -0.00024823,0.00030731,-0.01456080,0.01976869,0.00086453,0.00070889,-0
 .00054838,-0.00348614,-0.00356540,-0.00018278,-0.04720996,0.01014521,-
 0.01215646,0.06349919,0.00106952,0.00047685,-0.00008161,-0.00010919,0.
 00000478,-0.00010082,-0.00060919,0.00060863,-0.00024918,0.00003984,0.0
 0014175,-0.00041443,-0.00073508,-0.01574677,0.02122445,0.00102440,0.00
 061659,-0.00020855,-0.00352104,-0.00272428,-0.00018381,0.01214621,-0.1
 3504257,0.11788290,-0.01539476,0.14813390,0.00014086,-0.00019580,0.000
 21255,-0.00001696,0.00009063,-0.00010163,0.00060583,-0.00001577,0.0000
 7001,0.00020621,-0.00024532,0.00021005,-0.00041321,-0.00030968,0.00025
 659,0.00045424,0.00023241,0.00085300,-0.00009888,-0.00037989,0.0017898
 5,-0.01838362,0.12093601,-0.22136884,0.02100718,-0.13382507,0.23434198
 ,0.00179314,-0.00059664,-0.00082697,-0.00037069,0.00036369,0.00059381,
 -0.00002861,0.00007764,-0.00004433,0.00021523,0.00016409,0.00024822,0.
 00030693,-0.01456300,-0.01976699,-0.00348612,-0.00356529,0.00018321,0.
 00086456,0.00070897,0.00054829,-0.04720902,0.01014476,0.01215245,0.000
 30918,-0.00228567,-0.00206868,0.06349829,0.00106952,0.00047678,0.00008
 161,-0.00060923,0.00060870,0.00024910,-0.00010915,0.00000479,0.0001008
 2,0.00003980,0.00014184,0.00041442,-0.00073548,-0.01574928,-0.02122272
 ,-0.00352102,-0.00272421,0.00018433,0.00102436,0.00061662,0.00020856,0
 .01214651,-0.13506738,-0.11789110,-0.00228524,0.01206497,0.01498709,-0
 .01539508,0.14816213,-0.00014098,0.00019576,0.00021247,-0.00060578,0.0
 0001572,0.00006998,0.00001700,-0.00009063,-0.00010159,-0.00020622,0.00
 024532,0.00020999,0.00041336,0.00031163,0.00025911,0.00009932,0.000380
 46,0.00178978,-0.00045436,-0.00023238,0.00085305,0.01837934,-0.1209442
 5,-0.22134215,0.00206859,-0.01499061,-0.02111231,-0.02100271,0.1338333
 4,0.23431230,-0.00397904,-0.00755674,0.00000058,-0.00004543,0.00016603
 ,0.00023593,-0.00004549,0.00016600,-0.00023595,-0.00250262,0.00142584,
 -0.00000010,-0.04085753,0.01703774,-0.00000079,0.00303228,0.00134458,-
 0.00083685,0.00303223,0.00134457,0.00083673,-0.20309808,0.03374098,-0.
 00000114,-0.01162095,0.00660043,-0.00156442,-0.01162061,0.00660048,0.0
 0156397,0.34687728,-0.00242240,-0.00238997,0.00000026,-0.00044778,0.00
 023976,0.00031919,-0.00044769,0.00023968,-0.00031917,-0.00113838,0.000
 51556,0.,-0.01758709,0.01159589,-0.00000054,0.00038683,0.00167896,0.00
 145553,0.00038686,0.00167855,-0.00145556,0.08761219,-0.08904074,-0.000
 00124,0.02109346,-0.00721552,-0.00051956,0.02109679,-0.00721667,0.0005
 2022,-0.18285149,0.42379323,0.00000016,0.00000016,0.00085135,-0.000557
 55,0.00035571,0.00030777,0.00055765,-0.00035565,0.00030787,0.00000007,
 0.00000002,0.00068379,0.00000122,-0.00000076,0.00128525,-0.00015057,0.
 00158636,0.00097759,0.00015046,-0.00158644,0.00097791,-0.00000387,-0.0
 0000091,-0.10356370,-0.03079417,0.01127414,0.00215775,0.03079210,-0.01
 127324,0.00215846,0.00001232,0.00001427,0.69183430,-0.00021054,-0.0000
 6711,-0.00051662,0.00032313,-0.00025911,-0.00017667,0.00002802,-0.0000
 0097,0.00006133,0.00006841,-0.00007290,-0.00013785,0.00176334,0.001039
 47,0.00185946,-0.00057999,-0.00090261,-0.00084740,-0.00011728,-0.00016
 873,-0.00003445,-0.00987245,0.02263545,0.03219933,0.00124826,-0.000361
 26,-0.00050286,-0.00552053,0.00213574,-0.00063441,-0.03958529,0.037159
 01,0.01532851,0.05284108,-0.00032671,-0.00000480,-0.00009313,-0.000089
 53,-0.00009677,0.00000903,0.00004903,-0.00008265,0.00003740,-0.0000185
 1,0.00001812,0.00001550,-0.00042047,0.00151835,0.00137176,0.00034935,0
 .00051777,-0.00030803,-0.00001167,0.00001168,0.00010506,-0.00323651,-0
 .01053674,-0.01233414,-0.00015129,-0.00038528,0.00005425,0.00400105,-0
 .00093293,0.00080959,0.06099157,-0.16695774,-0.19683449,-0.05553189,0.
 16632813,-0.00028082,-0.00008086,0.00027969,-0.00014785,0.00001195,-0.
 00003693,-0.00003737,0.00004872,-0.00004317,-0.00009863,0.00002885,-0.
 00000238,-0.00114275,0.00145653,0.00039209,0.00067658,0.00012335,-0.00
 014794,0.00021023,-0.00003502,-0.00019874,-0.00141423,-0.00138855,0.00
 188910,0.00016224,0.00025773,0.00039734,-0.00064616,0.00058544,0.00229
 356,0.04169126,-0.16275356,-0.29897026,-0.04278556,0.18445813,0.319683
 01,-0.00021053,-0.00006708,0.00051663,0.00002804,-0.00000099,-0.000061
 34,0.00032314,-0.00025907,0.00017670,0.00006841,-0.00007287,0.00013786
 ,0.00176335,0.00103920,-0.00185958,-0.00011729,-0.00016873,0.00003445,
 -0.00057998,-0.00090248,0.00084750,-0.00987273,0.02263209,-0.03220151,
 -0.00552053,0.00213580,0.00063429,0.00124825,-0.00036121,0.00050289,-0
 .03958675,0.03715970,-0.01533635,-0.00038615,-0.00560441,0.00381308,0.
 05284277,-0.00032668,-0.00000478,0.00009313,0.00004903,-0.00008266,-0.
 00003738,-0.00008951,-0.00009677,-0.00000902,-0.00001850,0.00001811,-0
 .00001550,-0.00042039,0.00151804,-0.00137185,-0.00001169,0.00001168,-0
 .00010509,0.00034932,0.00051781,0.00030794,-0.00323630,-0.01053524,0.0
 1233540,0.00400106,-0.00093306,-0.00080930,-0.00015131,-0.00038533,-0.
 00005416,0.06099001,-0.16692100,0.19682082,-0.00560509,0.01060286,-0.0
 2271272,-0.05552995,0.16629034,0.00028086,0.00008090,0.00027964,0.0000
 3737,-0.00004872,-0.00004316,0.00014785,-0.00001195,-0.00003693,0.0000
 9862,-0.00002884,-0.00000237,0.00114279,-0.00145667,0.00039246,-0.0002
 1023,0.00003499,-0.00019875,-0.00067662,-0.00012340,-0.00014797,0.0014
 1472,0.00138950,0.00188808,0.00064585,-0.00058512,0.00229368,-0.000162
 24,-0.00025764,0.00039735,-0.04170154,0.16274016,-0.29900808,-0.003812
 82,0.02270906,-0.02553535,0.04279538,-0.18444226,0.31972141\\-0.000006
 64,0.00001814,-0.00000005,-0.00001324,-0.00001016,-0.00001767,-0.00001
 323,-0.00000996,0.00001777,0.00001956,0.00000962,-0.00000009,0.0000816
 6,-0.00002044,-0.00000007,-0.00001887,-0.00000030,0.00002022,-0.000018
 75,-0.00000011,-0.00002019,-0.00015478,0.00008262,0.00000085,0.0000282
 4,-0.00001533,0.00002751,0.00002816,-0.00001543,-0.00002803,0.00005352
 ,0.00000802,-0.00000064,0.00000725,-0.00002326,-0.00002112,0.00000712,
 -0.00002342,0.00002151\\\@
 The archive entry for this job was punched.


 "PERFECTION IS NOT AN ACCIDENT"
         --  EAGLE ELECTRIC MANUFACTURING CO.,INC. NY
 Job cpu time:       0 days  2 hours 37 minutes 16.5 seconds.
 Elapsed time:       0 days  0 hours  6 minutes 34.4 seconds.
 File lengths (MBytes):  RWF=     84 Int=      0 D2E=      0 Chk=      6 Scr=      1
 Normal termination of Gaussian 16 at Tue Jun 15 11:14:16 2021.
