 Entering Gaussian System, Link 0=g16
 Initial command:
 /opt/gaussian/g16/l1.exe "/tmp/Gau-52852.inp" -scrdir="/tmp/"
 Entering Link 1 = /opt/gaussian/g16/l1.exe PID=     52853.
  
 Copyright (c) 1988-2019, Gaussian, Inc.  All Rights Reserved.
  
 This is part of the Gaussian(R) 16 program.  It is based on
 the Gaussian(R) 09 system (copyright 2009, Gaussian, Inc.),
 the Gaussian(R) 03 system (copyright 2003, Gaussian, Inc.),
 the Gaussian(R) 98 system (copyright 1998, Gaussian, Inc.),
 the Gaussian(R) 94 system (copyright 1995, Gaussian, Inc.),
 the Gaussian 92(TM) system (copyright 1992, Gaussian, Inc.),
 the Gaussian 90(TM) system (copyright 1990, Gaussian, Inc.),
 the Gaussian 88(TM) system (copyright 1988, Gaussian, Inc.),
 the Gaussian 86(TM) system (copyright 1986, Carnegie Mellon
 University), and the Gaussian 82(TM) system (copyright 1983,
 Carnegie Mellon University). Gaussian is a federally registered
 trademark of Gaussian, Inc.
  
 This software contains proprietary and confidential information,
 including trade secrets, belonging to Gaussian, Inc.
  
 This software is provided under written license and may be
 used, copied, transmitted, or stored only in accord with that
 written license.
  
 The following legend is applicable only to US Government
 contracts under FAR:
  
                    RESTRICTED RIGHTS LEGEND
  
 Use, reproduction and disclosure by the US Government is
 subject to restrictions as set forth in subparagraphs (a)
 and (c) of the Commercial Computer Software - Restricted
 Rights clause in FAR 52.227-19.
  
 Gaussian, Inc.
 340 Quinnipiac St., Bldg. 40, Wallingford CT 06492
  
  
 ---------------------------------------------------------------
 Warning -- This program may not be used in any manner that
 competes with the business of Gaussian, Inc. or will provide
 assistance to any competitor of Gaussian, Inc.  The licensee
 of this program is prohibited from giving any competitor of
 Gaussian, Inc. access to this program.  By using this program,
 the user acknowledges that Gaussian, Inc. is engaged in the
 business of creating and licensing software in the field of
 computational chemistry and represents and warrants to the
 licensee that it is not a competitor of Gaussian, Inc. and that
 it will not use this program in any manner prohibited above.
 ---------------------------------------------------------------
  

 Cite this work as:
 Gaussian 16, Revision C.01,
 M. J. Frisch, G. W. Trucks, H. B. Schlegel, G. E. Scuseria, 
 M. A. Robb, J. R. Cheeseman, G. Scalmani, V. Barone, 
 G. A. Petersson, H. Nakatsuji, X. Li, M. Caricato, A. V. Marenich, 
 J. Bloino, B. G. Janesko, R. Gomperts, B. Mennucci, H. P. Hratchian, 
 J. V. Ortiz, A. F. Izmaylov, J. L. Sonnenberg, D. Williams-Young, 
 F. Ding, F. Lipparini, F. Egidi, J. Goings, B. Peng, A. Petrone, 
 T. Henderson, D. Ranasinghe, V. G. Zakrzewski, J. Gao, N. Rega, 
 G. Zheng, W. Liang, M. Hada, M. Ehara, K. Toyota, R. Fukuda, 
 J. Hasegawa, M. Ishida, T. Nakajima, Y. Honda, O. Kitao, H. Nakai, 
 T. Vreven, K. Throssell, J. A. Montgomery, Jr., J. E. Peralta, 
 F. Ogliaro, M. J. Bearpark, J. J. Heyd, E. N. Brothers, K. N. Kudin, 
 V. N. Staroverov, T. A. Keith, R. Kobayashi, J. Normand, 
 K. Raghavachari, A. P. Rendell, J. C. Burant, S. S. Iyengar, 
 J. Tomasi, M. Cossi, J. M. Millam, M. Klene, C. Adamo, R. Cammi, 
 J. W. Ochterski, R. L. Martin, K. Morokuma, O. Farkas, 
 J. B. Foresman, and D. J. Fox, Gaussian, Inc., Wallingford CT, 2019.
 
 ******************************************
 Gaussian 16:  ES64L-G16RevC.01  3-Jul-2019
                23-Jun-2021 
 ******************************************
 %chk=s000001.chk
 -------------------------
 #P freq m062x/jun-cc-pvtz
 -------------------------
 1/10=4,30=1,38=1/1,3;
 2/12=2,17=6,18=5,40=1/2;
 3/5=16,6=1,7=60,11=2,25=1,30=1,71=2,74=-55,140=1/1,2,3;
 4//1;
 5/5=2,38=5,98=1/2;
 8/6=4,10=90,11=11/1;
 11/6=1,8=1,9=11,15=111,16=1/1,2,10;
 10/6=1/2;
 6/7=2,8=2,9=2,10=2,28=1/1;
 7/8=1,10=1,25=1/1,2,3,16;
 1/10=4,30=1/3;
 99//99;
 Leave Link    1 at Wed Jun 23 18:59:03 2021, MaxMem=           0 cpu:               0.0 elap:               0.1
 (Enter /opt/gaussian/g16/l101.exe)
 ---------------------
 Generated by Multiwfn
 ---------------------
 Symbolic Z-matrix:
 Charge =  0 Multiplicity = 2
 C                    -1.9802    0.45894   0.13798 
 H                    -1.58111   1.46731   0.02006 
 H                    -2.91581   0.40164  -0.41603 
 H                    -2.20796   0.3143    1.19487 
 C                    -0.98424  -0.58562  -0.34703 
 H                    -0.78758  -0.44913  -1.41492 
 H                    -1.4018   -1.58904  -0.23418 
 C                     0.32834  -0.5227    0.40341 
 H                     0.79981   0.57014   0.21044 
 H                     0.17968  -0.57361   1.48397 
 N                     1.25592  -1.52917  -0.01295 
 H                     2.13924  -1.45985   0.47412 
 H                     1.43975  -1.47828  -1.00728 
 N                     1.38894   1.86161  -0.1628 
 H                     1.0403    2.39862   0.63666 
 H                     0.72454   2.08991  -0.90847 
 
 ITRead=  0  0  0  0  0  0  0  0  0  0  0  0  0  0  0  0
 MicOpt= -1 -1 -1 -1 -1 -1 -1 -1 -1 -1 -1 -1 -1 -1 -1 -1
 NAtoms=     16 NQM=       16 NQMF=       0 NMMI=      0 NMMIF=      0
                NMic=       0 NMicF=      0.
                    Isotopes and Nuclear Properties:
 (Nuclear quadrupole moments (NQMom) in fm**2, nuclear magnetic moments (NMagM)
  in nuclear magnetons)

  Atom         1           2           3           4           5           6           7           8           9          10
 IAtWgt=          12           1           1           1          12           1           1          12           1           1
 AtmWgt=  12.0000000   1.0078250   1.0078250   1.0078250  12.0000000   1.0078250   1.0078250  12.0000000   1.0078250   1.0078250
 NucSpn=           0           1           1           1           0           1           1           0           1           1
 AtZEff=  -0.0000000  -0.0000000  -0.0000000  -0.0000000  -0.0000000  -0.0000000  -0.0000000  -0.0000000  -0.0000000  -0.0000000
 NQMom=    0.0000000   0.0000000   0.0000000   0.0000000   0.0000000   0.0000000   0.0000000   0.0000000   0.0000000   0.0000000
 NMagM=    0.0000000   2.7928460   2.7928460   2.7928460   0.0000000   2.7928460   2.7928460   0.0000000   2.7928460   2.7928460
 AtZNuc=   6.0000000   1.0000000   1.0000000   1.0000000   6.0000000   1.0000000   1.0000000   6.0000000   1.0000000   1.0000000

  Atom        11          12          13          14          15          16
 IAtWgt=          14           1           1          14           1           1
 AtmWgt=  14.0030740   1.0078250   1.0078250  14.0030740   1.0078250   1.0078250
 NucSpn=           2           1           1           2           1           1
 AtZEff=  -0.0000000  -0.0000000  -0.0000000  -0.0000000  -0.0000000  -0.0000000
 NQMom=    2.0440000   0.0000000   0.0000000   2.0440000   0.0000000   0.0000000
 NMagM=    0.4037610   2.7928460   2.7928460   0.4037610   2.7928460   2.7928460
 AtZNuc=   7.0000000   1.0000000   1.0000000   7.0000000   1.0000000   1.0000000
 Leave Link  101 at Wed Jun 23 18:59:03 2021, MaxMem=   104857600 cpu:               0.2 elap:               0.2
 (Enter /opt/gaussian/g16/l103.exe)

 GradGradGradGradGradGradGradGradGradGradGradGradGradGradGradGradGradGrad
 Berny optimization.
 Initialization pass.
 Trust Radius=3.00D-01 FncErr=1.00D-07 GrdErr=1.00D-07 EigMax=2.50D+02 EigMin=1.00D-04
 Number of steps in this run=      2 maximum allowed number of steps=      2.
 GradGradGradGradGradGradGradGradGradGradGradGradGradGradGradGradGradGrad

 Leave Link  103 at Wed Jun 23 18:59:03 2021, MaxMem=   104857600 cpu:               0.1 elap:               0.1
 (Enter /opt/gaussian/g16/l202.exe)
                          Input orientation:                          
 ---------------------------------------------------------------------
 Center     Atomic      Atomic             Coordinates (Angstroms)
 Number     Number       Type             X           Y           Z
 ---------------------------------------------------------------------
      1          6           0       -1.980199    0.458942    0.137976
      2          1           0       -1.581107    1.467313    0.020062
      3          1           0       -2.915813    0.401642   -0.416029
      4          1           0       -2.207958    0.314300    1.194866
      5          6           0       -0.984243   -0.585617   -0.347032
      6          1           0       -0.787575   -0.449132   -1.414919
      7          1           0       -1.401798   -1.589044   -0.234182
      8          6           0        0.328336   -0.522701    0.403406
      9          1           0        0.799813    0.570136    0.210438
     10          1           0        0.179679   -0.573611    1.483969
     11          7           0        1.255916   -1.529166   -0.012950
     12          1           0        2.139239   -1.459852    0.474121
     13          1           0        1.439749   -1.478284   -1.007278
     14          7           0        1.388938    1.861609   -0.162798
     15          1           0        1.040299    2.398618    0.636659
     16          1           0        0.724541    2.089907   -0.908471
 ---------------------------------------------------------------------
                    Distance matrix (angstroms):
                    1          2          3          4          5
     1  C    0.000000
     2  H    1.090867   0.000000
     3  H    1.088843   1.762745   0.000000
     4  H    1.090785   1.761404   1.761724   0.000000
     5  C    1.522585   2.169222   2.170346   2.164435   0.000000
     6  H    2.158340   2.522226   2.500199   3.067783   1.094390
     7  H    2.160393   3.072151   2.507616   2.512925   1.092682
     8  C    2.522580   2.784435   3.471367   2.785636   1.513268
     9  H    2.783178   2.551460   3.771833   3.175096   2.197588
    10  H    2.746441   3.067371   3.760742   2.563743   2.169660
    11  N    3.801025   4.126582   4.614522   4.105558   2.453611
    12  H    4.556812   4.755569   5.459952   4.750285   3.345851
    13  H    4.093958   4.342527   4.780650   4.622614   2.666180
    14  N    3.661833   3.001679   4.552638   4.144283   3.413919
    15  H    3.624146   2.849437   4.554875   3.899635   3.737924
    16  H    3.327269   2.562384   4.042884   4.021984   3.223908
                    6          7          8          9         10
     6  H    0.000000
     7  H    1.752372   0.000000
     8  C    2.134707   2.130016   0.000000
     9  H    2.490079   3.115580   1.205745   0.000000
    10  H    3.058533   2.546412   1.091928   1.820606   0.000000
    11  N    2.703303   2.667578   1.430639   2.159861   2.076569
    12  H    3.627157   3.613492   2.040251   2.446312   2.375940
    13  H    2.487227   2.946920   2.034308   2.467463   2.934710
    14  N    3.412410   4.438503   2.670280   1.467745   3.178749
    15  H    3.957243   4.756432   3.015859   1.892840   3.208231
    16  H    2.998283   4.302402   2.950207   1.888737   3.621460
                   11         12         13         14         15
    11  N    0.000000
    12  H    1.011090   0.000000
    13  H    1.012458   1.638343   0.000000
    14  N    3.396690   3.464206   3.445376   0.000000
    15  H    3.986975   4.015206   4.229948   1.024236   0.000000
    16  H    3.765901   4.063708   3.640504   1.024486   1.606995
                   16
    16  H    0.000000
 Stoichiometry    C3H11N2(2)
 Framework group  C1[X(C3H11N2)]
 Deg. of freedom    42
 Full point group                 C1      NOp   1
 Largest Abelian subgroup         C1      NOp   1
 Largest concise Abelian subgroup C1      NOp   1
                         Standard orientation:                         
 ---------------------------------------------------------------------
 Center     Atomic      Atomic             Coordinates (Angstroms)
 Number     Number       Type             X           Y           Z
 ---------------------------------------------------------------------
      1          6           0       -2.005366    0.348729    0.130176
      2          1           0       -1.659477    1.378262    0.028144
      3          1           0       -2.933017    0.249395   -0.431228
      4          1           0       -2.232001    0.178250    1.183450
      5          6           0       -0.952365   -0.635195   -0.361094
      6          1           0       -0.756273   -0.474359   -1.425692
      7          1           0       -1.316920   -1.660702   -0.264195
      8          6           0        0.350142   -0.512929    0.399502
      9          1           0        0.764328    0.605767    0.224033
     10          1           0        0.197379   -0.585947    1.478223
     11          7           0        1.332402   -1.463341   -0.023124
     12          1           0        2.207635   -1.353888    0.471133
     13          1           0        1.519733   -1.389634   -1.015367
     14          7           0        1.286645    1.931413   -0.128278
     15          1           0        0.904875    2.438594    0.675513
     16          1           0        0.615944    2.134132   -0.875698
 ---------------------------------------------------------------------
 Rotational constants (GHZ):           4.0768976           3.3921359           2.0362235
 Leave Link  202 at Wed Jun 23 18:59:03 2021, MaxMem=   104857600 cpu:               0.1 elap:               0.1
 (Enter /opt/gaussian/g16/l301.exe)
 Standard basis: Jun-CC-pVTZ (5D, 7F)
 Ernie: Thresh=  0.10000D-02 Tol=  0.10000D-05 Strict=F.
 Ernie:  15 primitive shells out of 233 were deleted.
 There are   390 symmetry adapted cartesian basis functions of A   symmetry.
 There are   349 symmetry adapted basis functions of A   symmetry.
   349 basis functions,   497 primitive gaussians,   390 cartesian basis functions
    22 alpha electrons       21 beta electrons
       nuclear repulsion energy       189.1436362480 Hartrees.
 IExCor= 4336 DFT=T Ex+Corr=M062X ExCW=0 ScaHFX=  0.540000
 ScaDFX=  1.000000  1.000000  1.000000  1.000000 ScalE2=  1.000000  1.000000
 IRadAn=      5 IRanWt=     -1 IRanGd=            0 ICorTp=0 IEmpDi=  4
 NAtoms=   16 NActive=   16 NUniq=   16 SFac= 1.00D+00 NAtFMM=   60 NAOKFM=F Big=F
 Integral buffers will be    131072 words long.
 Raffenetti 2 integral format.
 Two-electron integral symmetry is turned on.
 Leave Link  301 at Wed Jun 23 18:59:03 2021, MaxMem=   104857600 cpu:               0.1 elap:               0.1
 (Enter /opt/gaussian/g16/l302.exe)
 NPDir=0 NMtPBC=     1 NCelOv=     1 NCel=       1 NClECP=     1 NCelD=      1
         NCelK=      1 NCelE2=     1 NClLst=     1 CellRange=     0.0.
 One-electron integrals computed using PRISM.
 One-electron integral symmetry used in STVInt
 NBasis=   349 RedAO= T EigKep=  6.98D-05  NBF=   349
 NBsUse=   349 1.00D-06 EigRej= -1.00D+00 NBFU=   349
 Precomputing XC quadrature grid using
 IXCGrd= 4 IRadAn=           5 IRanWt=          -1 IRanGd=           0 AccXCQ= 0.00D+00.
 Generated NRdTot=       0 NPtTot=           0 NUsed=           0 NTot=          32
 NSgBfM=   390   390   390   390   390 MxSgAt=    16 MxSgA2=    16.
 Leave Link  302 at Wed Jun 23 18:59:05 2021, MaxMem=   104857600 cpu:               1.1 elap:               1.1
 (Enter /opt/gaussian/g16/l303.exe)
 DipDrv:  MaxL=1.
 Leave Link  303 at Wed Jun 23 18:59:05 2021, MaxMem=   104857600 cpu:               0.2 elap:               0.1
 (Enter /opt/gaussian/g16/l401.exe)
 ExpMin= 3.57D-02 ExpMax= 1.14D+04 ExpMxC= 3.89D+02 IAcc=3 IRadAn=         5 AccDes= 0.00D+00
 Harris functional with IExCor= 1009 and IRadAn=       5 diagonalized for initial guess.
 HarFok:  IExCor= 1009 AccDes= 0.00D+00 IRadAn=         5 IDoV= 1 UseB2=F ITyADJ=14
 ICtDFT=  3500011 ScaDFX=  1.000000  1.000000  1.000000  1.000000
 FoFCou: FMM=F IPFlag=           0 FMFlag=      100000 FMFlg1=           0
         NFxFlg=           0 DoJE=T BraDBF=F KetDBF=T FulRan=T
         wScrn=  0.000000 ICntrl=       500 IOpCl=  0 I1Cent=   200000004 NGrid=           0
         NMat0=    1 NMatS0=      1 NMatT0=    0 NMatD0=    1 NMtDS0=    0 NMtDT0=    0
 Petite list used in FoFCou.
 Harris En= -230.277117067118    
 JPrj=0 DoOrth=F DoCkMO=F.
 Initial guess <Sx>= 0.0000 <Sy>= 0.0000 <Sz>= 0.5000 <S**2>= 0.7500 S= 0.5000
 Leave Link  401 at Wed Jun 23 18:59:30 2021, MaxMem=   104857600 cpu:              25.2 elap:              25.2
 (Enter /opt/gaussian/g16/l502.exe)
 Integral symmetry usage will be decided dynamically.
 UHF open shell SCF:
 Using DIIS extrapolation, IDIIS=  1040.
 NGot=   104857600 LenX=   104547210 LenY=   104394669
 Requested convergence on RMS density matrix=1.00D-08 within 128 cycles.
 Requested convergence on MAX density matrix=1.00D-06.
 Requested convergence on             energy=1.00D-06.
 No special actions if energy rises.
 Fock matrices will be formed incrementally for  20 cycles.

 Cycle   1  Pass 1  IDiag  1:
 FoFJK:  IHMeth= 1 ICntrl=       0 DoSepK=F KAlg= 0 I1Cent=           0 FoldK=F
 IRaf= 980000000 NMat=       1 IRICut=       1 DoRegI=T DoRafI=F ISym2E= 0 IDoP0=0 IntGTp=1.
 FoFCou: FMM=F IPFlag=           0 FMFlag=      100000 FMFlg1=           0
         NFxFlg=           0 DoJE=F BraDBF=F KetDBF=F FulRan=T
         wScrn=  0.000000 ICntrl=         0 IOpCl=  1 I1Cent=           0 NGrid=           0
         NMat0=    1 NMatS0=      1 NMatT0=    0 NMatD0=    1 NMtDS0=    0 NMtDT0=    0
 Symmetry not used in FoFCou.
 E= -230.098192808912    
 DIIS: error= 2.32D-02 at cycle   1 NSaved=   1.
 NSaved= 1 IEnMin= 1 EnMin= -230.098192808912     IErMin= 1 ErrMin= 2.32D-02
 ErrMax= 2.32D-02  0.00D+00 EMaxC= 1.00D-01 BMatC= 1.05D+00 BMatP= 1.05D+00
 IDIUse=3 WtCom= 7.68D-01 WtEn= 2.32D-01
 Coeff-Com:  0.100D+01
 Coeff-En:   0.100D+01
 Coeff:      0.100D+01
 Gap=     0.190 Goal=   None    Shift=    0.000
 Gap=     0.242 Goal=   None    Shift=    0.000
 GapD=    0.190 DampG=1.000 DampE=0.500 DampFc=0.5000 IDamp=-1.
 Damping current iteration by 5.00D-01
 RMSDP=2.12D-03 MaxDP=8.72D-02              OVMax= 2.17D-01

 Cycle   2  Pass 1  IDiag  1:
 RMSU=  1.06D-03    CP:  9.88D-01
 E= -230.210649434955     Delta-E=       -0.112456626042 Rises=F Damp=T
 DIIS: error= 4.06D-03 at cycle   2 NSaved=   2.
 NSaved= 2 IEnMin= 2 EnMin= -230.210649434955     IErMin= 2 ErrMin= 4.06D-03
 ErrMax= 4.06D-03  0.00D+00 EMaxC= 1.00D-01 BMatC= 6.55D-02 BMatP= 1.05D+00
 IDIUse=3 WtCom= 9.59D-01 WtEn= 4.06D-02
 Coeff-Com: -0.520D-01 0.105D+01
 Coeff-En:   0.000D+00 0.100D+01
 Coeff:     -0.499D-01 0.105D+01
 Gap=     0.278 Goal=   None    Shift=    0.000
 Gap=     0.327 Goal=   None    Shift=    0.000
 RMSDP=7.55D-04 MaxDP=2.33D-02 DE=-1.12D-01 OVMax= 1.04D-01

 Cycle   3  Pass 1  IDiag  1:
 RMSU=  7.37D-04    CP:  9.89D-01  1.15D+00
 E= -230.323760295317     Delta-E=       -0.113110860362 Rises=F Damp=F
 DIIS: error= 3.30D-03 at cycle   3 NSaved=   3.
 NSaved= 3 IEnMin= 3 EnMin= -230.323760295317     IErMin= 3 ErrMin= 3.30D-03
 ErrMax= 3.30D-03  0.00D+00 EMaxC= 1.00D-01 BMatC= 1.32D-02 BMatP= 6.55D-02
 IDIUse=3 WtCom= 9.67D-01 WtEn= 3.30D-02
 Coeff-Com: -0.563D-01 0.280D+00 0.776D+00
 Coeff-En:   0.000D+00 0.000D+00 0.100D+01
 Coeff:     -0.544D-01 0.271D+00 0.783D+00
 Gap=     0.266 Goal=   None    Shift=    0.000
 Gap=     0.246 Goal=   None    Shift=    0.000
 RMSDP=1.83D-04 MaxDP=1.06D-02 DE=-1.13D-01 OVMax= 6.68D-02

 Cycle   4  Pass 1  IDiag  1:
 RMSU=  1.76D-04    CP:  9.88D-01  1.20D+00  9.92D-01
 E= -230.326021609806     Delta-E=       -0.002261314489 Rises=F Damp=F
 DIIS: error= 2.91D-03 at cycle   4 NSaved=   4.
 NSaved= 4 IEnMin= 4 EnMin= -230.326021609806     IErMin= 4 ErrMin= 2.91D-03
 ErrMax= 2.91D-03  0.00D+00 EMaxC= 1.00D-01 BMatC= 7.20D-03 BMatP= 1.32D-02
 IDIUse=3 WtCom= 9.71D-01 WtEn= 2.91D-02
 Coeff-Com: -0.238D-01 0.551D-01 0.455D+00 0.513D+00
 Coeff-En:   0.000D+00 0.000D+00 0.232D+00 0.768D+00
 Coeff:     -0.231D-01 0.535D-01 0.449D+00 0.521D+00
 Gap=     0.269 Goal=   None    Shift=    0.000
 Gap=     0.246 Goal=   None    Shift=    0.000
 RMSDP=1.05D-04 MaxDP=5.42D-03 DE=-2.26D-03 OVMax= 1.25D-02

 Cycle   5  Pass 1  IDiag  1:
 RMSU=  9.68D-05    CP:  9.88D-01  1.19D+00  1.00D+00  7.78D-01
 E= -230.327733442738     Delta-E=       -0.001711832932 Rises=F Damp=F
 DIIS: error= 5.06D-04 at cycle   5 NSaved=   5.
 NSaved= 5 IEnMin= 5 EnMin= -230.327733442738     IErMin= 5 ErrMin= 5.06D-04
 ErrMax= 5.06D-04  0.00D+00 EMaxC= 1.00D-01 BMatC= 1.99D-04 BMatP= 7.20D-03
 IDIUse=3 WtCom= 9.95D-01 WtEn= 5.06D-03
 Coeff-Com:  0.513D-02-0.211D-01-0.232D-01-0.916D-03 0.104D+01
 Coeff-En:   0.000D+00 0.000D+00 0.000D+00 0.000D+00 0.100D+01
 Coeff:      0.510D-02-0.210D-01-0.231D-01-0.911D-03 0.104D+01
 Gap=     0.269 Goal=   None    Shift=    0.000
 Gap=     0.249 Goal=   None    Shift=    0.000
 RMSDP=5.84D-05 MaxDP=3.46D-03 DE=-1.71D-03 OVMax= 1.86D-02

 Cycle   6  Pass 1  IDiag  1:
 RMSU=  3.11D-05    CP:  9.88D-01  1.18D+00  1.01D+00  8.96D-01  1.45D+00
 E= -230.327948009619     Delta-E=       -0.000214566881 Rises=F Damp=F
 DIIS: error= 3.42D-04 at cycle   6 NSaved=   6.
 NSaved= 6 IEnMin= 6 EnMin= -230.327948009619     IErMin= 6 ErrMin= 3.42D-04
 ErrMax= 3.42D-04  0.00D+00 EMaxC= 1.00D-01 BMatC= 1.07D-04 BMatP= 1.99D-04
 IDIUse=3 WtCom= 9.97D-01 WtEn= 3.42D-03
 Coeff-Com:  0.693D-02-0.182D-01-0.106D+00-0.159D+00 0.309D+00 0.967D+00
 Coeff-En:   0.000D+00 0.000D+00 0.000D+00 0.000D+00 0.000D+00 0.100D+01
 Coeff:      0.691D-02-0.182D-01-0.105D+00-0.158D+00 0.308D+00 0.967D+00
 Gap=     0.269 Goal=   None    Shift=    0.000
 Gap=     0.250 Goal=   None    Shift=    0.000
 RMSDP=4.16D-05 MaxDP=2.29D-03 DE=-2.15D-04 OVMax= 1.08D-02

 Cycle   7  Pass 1  IDiag  1:
 RMSU=  1.46D-05    CP:  9.88D-01  1.17D+00  1.01D+00  9.51D-01  1.80D+00
                    CP:  1.46D+00
 E= -230.328027088252     Delta-E=       -0.000079078632 Rises=F Damp=F
 DIIS: error= 1.23D-04 at cycle   7 NSaved=   7.
 NSaved= 7 IEnMin= 7 EnMin= -230.328027088252     IErMin= 7 ErrMin= 1.23D-04
 ErrMax= 1.23D-04  0.00D+00 EMaxC= 1.00D-01 BMatC= 2.01D-05 BMatP= 1.07D-04
 IDIUse=3 WtCom= 9.99D-01 WtEn= 1.23D-03
 Coeff-Com:  0.121D-02-0.110D-02-0.298D-01-0.711D-01-0.103D+00 0.369D+00
 Coeff-Com:  0.834D+00
 Coeff-En:   0.000D+00 0.000D+00 0.000D+00 0.000D+00 0.000D+00 0.000D+00
 Coeff-En:   0.100D+01
 Coeff:      0.121D-02-0.110D-02-0.297D-01-0.710D-01-0.103D+00 0.369D+00
 Coeff:      0.835D+00
 Gap=     0.269 Goal=   None    Shift=    0.000
 Gap=     0.251 Goal=   None    Shift=    0.000
 RMSDP=1.75D-05 MaxDP=8.96D-04 DE=-7.91D-05 OVMax= 5.47D-03

 Cycle   8  Pass 1  IDiag  1:
 RMSU=  5.97D-06    CP:  9.88D-01  1.17D+00  1.01D+00  9.68D-01  1.93D+00
                    CP:  1.76D+00  1.32D+00
 E= -230.328041721622     Delta-E=       -0.000014633370 Rises=F Damp=F
 DIIS: error= 3.62D-05 at cycle   8 NSaved=   8.
 NSaved= 8 IEnMin= 8 EnMin= -230.328041721622     IErMin= 8 ErrMin= 3.62D-05
 ErrMax= 3.62D-05  0.00D+00 EMaxC= 1.00D-01 BMatC= 2.55D-06 BMatP= 2.01D-05
 IDIUse=1 WtCom= 1.00D+00 WtEn= 0.00D+00
 Coeff-Com: -0.101D-02 0.273D-02 0.149D-01 0.122D-01-0.477D-01-0.129D+00
 Coeff-Com:  0.717D-01 0.108D+01
 Coeff:     -0.101D-02 0.273D-02 0.149D-01 0.122D-01-0.477D-01-0.129D+00
 Coeff:      0.717D-01 0.108D+01
 Gap=     0.269 Goal=   None    Shift=    0.000
 Gap=     0.250 Goal=   None    Shift=    0.000
 RMSDP=7.52D-06 MaxDP=3.20D-04 DE=-1.46D-05 OVMax= 2.11D-03

 Cycle   9  Pass 1  IDiag  1:
 RMSU=  2.84D-06    CP:  9.88D-01  1.17D+00  1.01D+00  9.69D-01  1.97D+00
                    CP:  1.88D+00  1.58D+00  1.29D+00
 E= -230.328044015111     Delta-E=       -0.000002293489 Rises=F Damp=F
 DIIS: error= 2.10D-05 at cycle   9 NSaved=   9.
 NSaved= 9 IEnMin= 9 EnMin= -230.328044015111     IErMin= 9 ErrMin= 2.10D-05
 ErrMax= 2.10D-05  0.00D+00 EMaxC= 1.00D-01 BMatC= 8.12D-07 BMatP= 2.55D-06
 IDIUse=1 WtCom= 1.00D+00 WtEn= 0.00D+00
 Coeff-Com: -0.567D-03 0.125D-02 0.122D-01 0.171D-01 0.648D-02-0.126D+00
 Coeff-Com: -0.137D+00 0.466D+00 0.761D+00
 Coeff:     -0.567D-03 0.125D-02 0.122D-01 0.171D-01 0.648D-02-0.126D+00
 Coeff:     -0.137D+00 0.466D+00 0.761D+00
 Gap=     0.269 Goal=   None    Shift=    0.000
 Gap=     0.250 Goal=   None    Shift=    0.000
 RMSDP=2.61D-06 MaxDP=1.21D-04 DE=-2.29D-06 OVMax= 6.86D-04

 Cycle  10  Pass 1  IDiag  1:
 RMSU=  1.09D-06    CP:  9.88D-01  1.17D+00  1.01D+00  9.69D-01  1.98D+00
                    CP:  1.92D+00  1.66D+00  1.46D+00  1.27D+00
 E= -230.328044464789     Delta-E=       -0.000000449679 Rises=F Damp=F
 DIIS: error= 9.53D-06 at cycle  10 NSaved=  10.
 NSaved=10 IEnMin=10 EnMin= -230.328044464789     IErMin=10 ErrMin= 9.53D-06
 ErrMax= 9.53D-06  0.00D+00 EMaxC= 1.00D-01 BMatC= 9.00D-08 BMatP= 8.12D-07
 IDIUse=1 WtCom= 1.00D+00 WtEn= 0.00D+00
 Coeff-Com:  0.185D-03-0.477D-03-0.146D-02-0.136D-02 0.120D-01 0.581D-02
 Coeff-Com: -0.336D-01-0.115D+00 0.654D-01 0.107D+01
 Coeff:      0.185D-03-0.477D-03-0.146D-02-0.136D-02 0.120D-01 0.581D-02
 Coeff:     -0.336D-01-0.115D+00 0.654D-01 0.107D+01
 Gap=     0.269 Goal=   None    Shift=    0.000
 Gap=     0.250 Goal=   None    Shift=    0.000
 RMSDP=1.33D-06 MaxDP=6.13D-05 DE=-4.50D-07 OVMax= 3.83D-04

 Cycle  11  Pass 1  IDiag  1:
 RMSU=  5.46D-07    CP:  9.88D-01  1.17D+00  1.01D+00  9.69D-01  1.99D+00
                    CP:  1.93D+00  1.68D+00  1.52D+00  1.51D+00  1.43D+00
 E= -230.328044577228     Delta-E=       -0.000000112439 Rises=F Damp=F
 DIIS: error= 3.94D-06 at cycle  11 NSaved=  11.
 NSaved=11 IEnMin=11 EnMin= -230.328044577228     IErMin=11 ErrMin= 3.94D-06
 ErrMax= 3.94D-06  0.00D+00 EMaxC= 1.00D-01 BMatC= 1.87D-08 BMatP= 9.00D-08
 IDIUse=1 WtCom= 1.00D+00 WtEn= 0.00D+00
 Coeff-Com:  0.127D-03-0.297D-03-0.240D-02-0.344D-02 0.146D-02 0.225D-01
 Coeff-Com:  0.198D-01-0.927D-01-0.153D+00 0.996D-01 0.111D+01
 Coeff:      0.127D-03-0.297D-03-0.240D-02-0.344D-02 0.146D-02 0.225D-01
 Coeff:      0.198D-01-0.927D-01-0.153D+00 0.996D-01 0.111D+01
 Gap=     0.269 Goal=   None    Shift=    0.000
 Gap=     0.250 Goal=   None    Shift=    0.000
 RMSDP=7.01D-07 MaxDP=3.94D-05 DE=-1.12D-07 OVMax= 2.61D-04

 Cycle  12  Pass 1  IDiag  1:
 RMSU=  2.66D-07    CP:  9.88D-01  1.17D+00  1.01D+00  9.69D-01  1.99D+00
                    CP:  1.94D+00  1.70D+00  1.54D+00  1.63D+00  1.70D+00
                    CP:  1.53D+00
 E= -230.328044609463     Delta-E=       -0.000000032234 Rises=F Damp=F
 DIIS: error= 2.22D-06 at cycle  12 NSaved=  12.
 NSaved=12 IEnMin=12 EnMin= -230.328044609463     IErMin=12 ErrMin= 2.22D-06
 ErrMax= 2.22D-06  0.00D+00 EMaxC= 1.00D-01 BMatC= 3.73D-09 BMatP= 1.87D-08
 IDIUse=1 WtCom= 1.00D+00 WtEn= 0.00D+00
 Coeff-Com: -0.464D-04 0.104D-03 0.336D-03 0.335D-03-0.180D-02-0.210D-02
 Coeff-Com:  0.457D-02 0.261D-01-0.213D-01-0.220D+00 0.480D-01 0.117D+01
 Coeff:     -0.464D-04 0.104D-03 0.336D-03 0.335D-03-0.180D-02-0.210D-02
 Coeff:      0.457D-02 0.261D-01-0.213D-01-0.220D+00 0.480D-01 0.117D+01
 Gap=     0.269 Goal=   None    Shift=    0.000
 Gap=     0.250 Goal=   None    Shift=    0.000
 RMSDP=3.49D-07 MaxDP=2.04D-05 DE=-3.22D-08 OVMax= 1.45D-04

 Cycle  13  Pass 1  IDiag  1:
 RMSU=  1.20D-07    CP:  9.88D-01  1.17D+00  1.01D+00  9.69D-01  1.99D+00
                    CP:  1.94D+00  1.70D+00  1.56D+00  1.66D+00  1.81D+00
                    CP:  1.87D+00  1.56D+00
 E= -230.328044616569     Delta-E=       -0.000000007107 Rises=F Damp=F
 DIIS: error= 8.92D-07 at cycle  13 NSaved=  13.
 NSaved=13 IEnMin=13 EnMin= -230.328044616569     IErMin=13 ErrMin= 8.92D-07
 ErrMax= 8.92D-07  0.00D+00 EMaxC= 1.00D-01 BMatC= 7.34D-10 BMatP= 3.73D-09
 IDIUse=1 WtCom= 1.00D+00 WtEn= 0.00D+00
 Coeff-Com: -0.297D-04 0.711D-04 0.459D-03 0.575D-03-0.612D-03-0.416D-02
 Coeff-Com: -0.207D-02 0.220D-01 0.178D-01-0.745D-01-0.185D+00 0.252D+00
 Coeff-Com:  0.973D+00
 Coeff:     -0.297D-04 0.711D-04 0.459D-03 0.575D-03-0.612D-03-0.416D-02
 Coeff:     -0.207D-02 0.220D-01 0.178D-01-0.745D-01-0.185D+00 0.252D+00
 Coeff:      0.973D+00
 Gap=     0.269 Goal=   None    Shift=    0.000
 Gap=     0.250 Goal=   None    Shift=    0.000
 RMSDP=1.43D-07 MaxDP=7.88D-06 DE=-7.11D-09 OVMax= 5.67D-05

 Cycle  14  Pass 1  IDiag  1:
 RMSU=  4.52D-08    CP:  9.88D-01  1.17D+00  1.01D+00  9.69D-01  1.99D+00
                    CP:  1.94D+00  1.70D+00  1.56D+00  1.68D+00  1.84D+00
                    CP:  1.99D+00  1.83D+00  1.40D+00
 E= -230.328044617526     Delta-E=       -0.000000000957 Rises=F Damp=F
 DIIS: error= 2.88D-07 at cycle  14 NSaved=  14.
 NSaved=14 IEnMin=14 EnMin= -230.328044617526     IErMin=14 ErrMin= 2.88D-07
 ErrMax= 2.88D-07  0.00D+00 EMaxC= 1.00D-01 BMatC= 1.12D-10 BMatP= 7.34D-10
 IDIUse=1 WtCom= 1.00D+00 WtEn= 0.00D+00
 Coeff-Com:  0.266D-05-0.345D-05 0.310D-04 0.216D-04 0.721D-04-0.478D-03
 Coeff-Com: -0.728D-03 0.154D-02 0.665D-02 0.168D-01-0.496D-01-0.138D+00
 Coeff-Com:  0.281D+00 0.882D+00
 Coeff:      0.266D-05-0.345D-05 0.310D-04 0.216D-04 0.721D-04-0.478D-03
 Coeff:     -0.728D-03 0.154D-02 0.665D-02 0.168D-01-0.496D-01-0.138D+00
 Coeff:      0.281D+00 0.882D+00
 Gap=     0.269 Goal=   None    Shift=    0.000
 Gap=     0.250 Goal=   None    Shift=    0.000
 RMSDP=4.01D-08 MaxDP=1.91D-06 DE=-9.57D-10 OVMax= 1.38D-05

 Cycle  15  Pass 1  IDiag  1:
 RMSU=  1.70D-08    CP:  9.88D-01  1.17D+00  1.01D+00  9.70D-01  1.99D+00
                    CP:  1.94D+00  1.70D+00  1.56D+00  1.68D+00  1.85D+00
                    CP:  2.02D+00  1.91D+00  1.58D+00  1.25D+00
 E= -230.328044617602     Delta-E=       -0.000000000075 Rises=F Damp=F
 DIIS: error= 6.51D-08 at cycle  15 NSaved=  15.
 NSaved=15 IEnMin=15 EnMin= -230.328044617602     IErMin=15 ErrMin= 6.51D-08
 ErrMax= 6.51D-08  0.00D+00 EMaxC= 1.00D-01 BMatC= 8.79D-12 BMatP= 1.12D-10
 IDIUse=1 WtCom= 1.00D+00 WtEn= 0.00D+00
 Coeff-Com:  0.281D-05-0.615D-05-0.268D-04-0.316D-04 0.721D-04 0.247D-03
 Coeff-Com: -0.382D-05-0.146D-02-0.447D-03 0.905D-02 0.864D-02-0.433D-01
 Coeff-Com: -0.553D-01 0.141D+00 0.942D+00
 Coeff:      0.281D-05-0.615D-05-0.268D-04-0.316D-04 0.721D-04 0.247D-03
 Coeff:     -0.382D-05-0.146D-02-0.447D-03 0.905D-02 0.864D-02-0.433D-01
 Coeff:     -0.553D-01 0.141D+00 0.942D+00
 Gap=     0.269 Goal=   None    Shift=    0.000
 Gap=     0.250 Goal=   None    Shift=    0.000
 RMSDP=1.09D-08 MaxDP=6.78D-07 DE=-7.54D-11 OVMax= 2.84D-06

 Cycle  16  Pass 1  IDiag  1:
 RMSU=  5.32D-09    CP:  9.88D-01  1.17D+00  1.01D+00  9.70D-01  1.99D+00
                    CP:  1.94D+00  1.70D+00  1.56D+00  1.68D+00  1.85D+00
                    CP:  2.02D+00  1.92D+00  1.63D+00  1.37D+00  1.18D+00
 E= -230.328044617609     Delta-E=       -0.000000000008 Rises=F Damp=F
 DIIS: error= 2.05D-08 at cycle  16 NSaved=  16.
 NSaved=16 IEnMin=16 EnMin= -230.328044617609     IErMin=16 ErrMin= 2.05D-08
 ErrMax= 2.05D-08  0.00D+00 EMaxC= 1.00D-01 BMatC= 8.15D-13 BMatP= 8.79D-12
 IDIUse=1 WtCom= 1.00D+00 WtEn= 0.00D+00
 Coeff-Com: -0.414D-06 0.494D-06-0.703D-06 0.373D-05-0.187D-05 0.264D-04
 Coeff-Com:  0.220D-04-0.121D-03-0.650D-03-0.131D-02 0.582D-02 0.133D-01
 Coeff-Com: -0.382D-01-0.905D-01 0.831D-01 0.103D+01
 Coeff:     -0.414D-06 0.494D-06-0.703D-06 0.373D-05-0.187D-05 0.264D-04
 Coeff:      0.220D-04-0.121D-03-0.650D-03-0.131D-02 0.582D-02 0.133D-01
 Coeff:     -0.382D-01-0.905D-01 0.831D-01 0.103D+01
 Gap=     0.269 Goal=   None    Shift=    0.000
 Gap=     0.250 Goal=   None    Shift=    0.000
 RMSDP=3.78D-09 MaxDP=1.97D-07 DE=-7.62D-12 OVMax= 6.43D-07

 SCF Done:  E(UM062X) =  -230.328044618     A.U. after   16 cycles
            NFock= 16  Conv=0.38D-08     -V/T= 2.0060
 <Sx>= 0.0000 <Sy>= 0.0000 <Sz>= 0.5000 <S**2>= 0.7595 S= 0.5047
 <L.S>=  0.00000000000    
 KE= 2.289474889325D+02 PE=-9.132867717468D+02 EE= 2.648676019487D+02
 Annihilation of the first spin contaminant:
 S**2 before annihilation     0.7595,   after     0.7500
 Leave Link  502 at Wed Jun 23 19:17:34 2021, MaxMem=   104857600 cpu:            1083.5 elap:            1083.5
 (Enter /opt/gaussian/g16/l801.exe)
 DoSCS=F DFT=T ScalE2(SS,OS)=  1.000000  1.000000
 Range of M.O.s used for correlation:     1   349
 NBasis=   349 NAE=    22 NBE=    21 NFC=     0 NFV=     0
 NROrb=    349 NOA=    22 NOB=    21 NVA=   327 NVB=   328

 **** Warning!!: The largest alpha MO coefficient is  0.33339663D+02


 **** Warning!!: The largest beta MO coefficient is  0.35119177D+02

 Leave Link  801 at Wed Jun 23 19:17:34 2021, MaxMem=   104857600 cpu:               0.1 elap:               0.1
 (Enter /opt/gaussian/g16/l1101.exe)
 Using compressed storage, NAtomX=    16.
 Will process     17 centers per pass.
 Leave Link 1101 at Wed Jun 23 19:17:34 2021, MaxMem=   104857600 cpu:               0.5 elap:               0.5
 (Enter /opt/gaussian/g16/l1102.exe)
 Symmetrizing basis deriv contribution to polar:
 IMax=3 JMax=2 DiffMx= 0.00D+00
 Leave Link 1102 at Wed Jun 23 19:17:34 2021, MaxMem=   104857600 cpu:               0.1 elap:               0.1
 (Enter /opt/gaussian/g16/l1110.exe)
 Forming Gx(P) for the SCF density, NAtomX=    16.
 Integral derivatives from FoFJK, PRISM(SPDF).
 Do as many integral derivatives as possible in FoFJK.
 G2DrvN: MDV=     104855816.
 G2DrvN: will do    17 centers at a time, making    1 passes.
 Calling FoFCou, ICntrl=  3107 FMM=F I1Cent=   0 AccDes= 0.00D+00.
 FoFJK:  IHMeth= 1 ICntrl=    3107 DoSepK=F KAlg= 0 I1Cent=           0 FoldK=F
 IRaf=         0 NMat=       1 IRICut=       1 DoRegI=T DoRafI=F ISym2E= 0 IDoP0=0 IntGTp=1.
 FoFCou: FMM=F IPFlag=           0 FMFlag=      100000 FMFlg1=           0
         NFxFlg=           0 DoJE=F BraDBF=F KetDBF=F FulRan=T
         wScrn=  0.000000 ICntrl=      3107 IOpCl=  1 I1Cent=           0 NGrid=           0
         NMat0=    1 NMatS0=      1 NMatT0=    0 NMatD0=    1 NMtDS0=    0 NMtDT0=    0
 Symmetry not used in FoFCou.
 End of G2Drv F.D. properties file   721 does not exist.
 End of G2Drv F.D. properties file   722 does not exist.
 End of G2Drv F.D. properties file   788 does not exist.
 Leave Link 1110 at Wed Jun 23 19:43:57 2021, MaxMem=   104857600 cpu:            1583.0 elap:            1583.1
 (Enter /opt/gaussian/g16/l1002.exe)
 Minotr:  UHF open shell wavefunction.
          IDoAtm=1111111111111111
          Direct CPHF calculation.
          Differentiating once with respect to electric field.
                with respect to dipole field.
          Differentiating once with respect to nuclear coordinates.
          Requested convergence is 1.0D-08 RMS, and 1.0D-07 maximum.
          Secondary convergence is 1.0D-12 RMS, and 1.0D-12 maximum.
          NewPWx=T KeepS1=F KeepF1=F KeepIn=T MapXYZ=F SortEE=F KeepMc=T.
         4951 words used for storage of precomputed grid.
 Two-electron integrals replicated using symmetry.
          MDV=     104857600 using IRadAn=       1.
          Solving linear equations simultaneously, MaxMat=     384.
 FoF2E skips out because all densities are zero.
 CalDSu exits because no D1Ps are significant.
 FoFJK:  IHMeth= 1 ICntrl=       0 DoSepK=F KAlg= 0 I1Cent=           0 FoldK=F
 IRaf= 980000000 NMat=      48 IRICut=     120 DoRegI=T DoRafI=T ISym2E= 2 IDoP0=3 IntGTp=3.
 FoFCou: FMM=F IPFlag=           0 FMFlag=      100000 FMFlg1=           0
         NFxFlg=           0 DoJE=F BraDBF=F KetDBF=F FulRan=T
         wScrn=  0.000000 ICntrl=         0 IOpCl=  1 I1Cent=           0 NGrid=           0
         NMat0=   48 NMatS0=     48 NMatT0=    0 NMatD0=   48 NMtDS0=    0 NMtDT0=    0
 Integrals replicated using symmetry in FoFCou.
 Raff kept on since  96.65% of shell-pairs survive, threshold=   0.20 IRatSp=97.
          There are    51 degrees of freedom in the 1st order CPHF.  IDoFFX=6 NUNeed=     3.
     48 vectors produced by pass  0 Test12= 2.76D-14 1.96D-09 XBig12= 1.15D+02 7.71D+00.
 AX will form    48 AO Fock derivatives at one time.
     48 vectors produced by pass  1 Test12= 2.76D-14 1.96D-09 XBig12= 7.16D+00 4.23D-01.
     48 vectors produced by pass  2 Test12= 2.76D-14 1.96D-09 XBig12= 1.79D-01 5.58D-02.
     48 vectors produced by pass  3 Test12= 2.76D-14 1.96D-09 XBig12= 2.94D-03 5.04D-03.
     48 vectors produced by pass  4 Test12= 2.76D-14 1.96D-09 XBig12= 4.08D-05 5.26D-04.
     48 vectors produced by pass  5 Test12= 2.76D-14 1.96D-09 XBig12= 5.42D-07 5.33D-05.
     47 vectors produced by pass  6 Test12= 2.76D-14 1.96D-09 XBig12= 5.72D-09 6.56D-06.
     12 vectors produced by pass  7 Test12= 2.76D-14 1.96D-09 XBig12= 3.86D-11 5.32D-07.
      3 vectors produced by pass  8 Test12= 2.76D-14 1.96D-09 XBig12= 2.45D-13 4.81D-08.
      1 vectors produced by pass  9 Test12= 2.76D-14 1.96D-09 XBig12= 1.72D-15 4.23D-09.
 InvSVY:  IOpt=1 It=  1 EMax= 3.55D-15
 Solved reduced A of dimension   351 with    51 vectors.
 FullF1:  Do perturbations      1 to       3.
 Isotropic polarizability for W=    0.000000       73.97 Bohr**3.
 End of Minotr F.D. properties file   721 does not exist.
 End of Minotr F.D. properties file   722 does not exist.
 End of Minotr F.D. properties file   788 does not exist.
 Leave Link 1002 at Wed Jun 23 20:51:06 2021, MaxMem=   104857600 cpu:            4028.2 elap:            4028.3
 (Enter /opt/gaussian/g16/l601.exe)
 Copying SCF densities to generalized density rwf, IOpCl= 1 IROHF=0.

 **********************************************************************

            Population analysis using the SCF Density.

 **********************************************************************

 Orbital symmetries:
 Alpha Orbitals:
       Occupied  (A) (A) (A) (A) (A) (A) (A) (A) (A) (A) (A) (A)
                 (A) (A) (A) (A) (A) (A) (A) (A) (A) (A)
       Virtual   (A) (A) (A) (A) (A) (A) (A) (A) (A) (A) (A) (A)
                 (A) (A) (A) (A) (A) (A) (A) (A) (A) (A) (A) (A)
                 (A) (A) (A) (A) (A) (A) (A) (A) (A) (A) (A) (A)
                 (A) (A) (A) (A) (A) (A) (A) (A) (A) (A) (A) (A)
                 (A) (A) (A) (A) (A) (A) (A) (A) (A) (A) (A) (A)
                 (A) (A) (A) (A) (A) (A) (A) (A) (A) (A) (A) (A)
                 (A) (A) (A) (A) (A) (A) (A) (A) (A) (A) (A) (A)
                 (A) (A) (A) (A) (A) (A) (A) (A) (A) (A) (A) (A)
                 (A) (A) (A) (A) (A) (A) (A) (A) (A) (A) (A) (A)
                 (A) (A) (A) (A) (A) (A) (A) (A) (A) (A) (A) (A)
                 (A) (A) (A) (A) (A) (A) (A) (A) (A) (A) (A) (A)
                 (A) (A) (A) (A) (A) (A) (A) (A) (A) (A) (A) (A)
                 (A) (A) (A) (A) (A) (A) (A) (A) (A) (A) (A) (A)
                 (A) (A) (A) (A) (A) (A) (A) (A) (A) (A) (A) (A)
                 (A) (A) (A) (A) (A) (A) (A) (A) (A) (A) (A) (A)
                 (A) (A) (A) (A) (A) (A) (A) (A) (A) (A) (A) (A)
                 (A) (A) (A) (A) (A) (A) (A) (A) (A) (A) (A) (A)
                 (A) (A) (A) (A) (A) (A) (A) (A) (A) (A) (A) (A)
                 (A) (A) (A) (A) (A) (A) (A) (A) (A) (A) (A) (A)
                 (A) (A) (A) (A) (A) (A) (A) (A) (A) (A) (A) (A)
                 (A) (A) (A) (A) (A) (A) (A) (A) (A) (A) (A) (A)
                 (A) (A) (A) (A) (A) (A) (A) (A) (A) (A) (A) (A)
                 (A) (A) (A) (A) (A) (A) (A) (A) (A) (A) (A) (A)
                 (A) (A) (A) (A) (A) (A) (A) (A) (A) (A) (A) (A)
                 (A) (A) (A) (A) (A) (A) (A) (A) (A) (A) (A) (A)
                 (A) (A) (A) (A) (A) (A) (A) (A) (A) (A) (A) (A)
                 (A) (A) (A) (A) (A) (A) (A) (A) (A) (A) (A) (A)
                 (A) (A) (A)
 Beta  Orbitals:
       Occupied  (A) (A) (A) (A) (A) (A) (A) (A) (A) (A) (A) (A)
                 (A) (A) (A) (A) (A) (A) (A) (A) (A)
       Virtual   (A) (A) (A) (A) (A) (A) (A) (A) (A) (A) (A) (A)
                 (A) (A) (A) (A) (A) (A) (A) (A) (A) (A) (A) (A)
                 (A) (A) (A) (A) (A) (A) (A) (A) (A) (A) (A) (A)
                 (A) (A) (A) (A) (A) (A) (A) (A) (A) (A) (A) (A)
                 (A) (A) (A) (A) (A) (A) (A) (A) (A) (A) (A) (A)
                 (A) (A) (A) (A) (A) (A) (A) (A) (A) (A) (A) (A)
                 (A) (A) (A) (A) (A) (A) (A) (A) (A) (A) (A) (A)
                 (A) (A) (A) (A) (A) (A) (A) (A) (A) (A) (A) (A)
                 (A) (A) (A) (A) (A) (A) (A) (A) (A) (A) (A) (A)
                 (A) (A) (A) (A) (A) (A) (A) (A) (A) (A) (A) (A)
                 (A) (A) (A) (A) (A) (A) (A) (A) (A) (A) (A) (A)
                 (A) (A) (A) (A) (A) (A) (A) (A) (A) (A) (A) (A)
                 (A) (A) (A) (A) (A) (A) (A) (A) (A) (A) (A) (A)
                 (A) (A) (A) (A) (A) (A) (A) (A) (A) (A) (A) (A)
                 (A) (A) (A) (A) (A) (A) (A) (A) (A) (A) (A) (A)
                 (A) (A) (A) (A) (A) (A) (A) (A) (A) (A) (A) (A)
                 (A) (A) (A) (A) (A) (A) (A) (A) (A) (A) (A) (A)
                 (A) (A) (A) (A) (A) (A) (A) (A) (A) (A) (A) (A)
                 (A) (A) (A) (A) (A) (A) (A) (A) (A) (A) (A) (A)
                 (A) (A) (A) (A) (A) (A) (A) (A) (A) (A) (A) (A)
                 (A) (A) (A) (A) (A) (A) (A) (A) (A) (A) (A) (A)
                 (A) (A) (A) (A) (A) (A) (A) (A) (A) (A) (A) (A)
                 (A) (A) (A) (A) (A) (A) (A) (A) (A) (A) (A) (A)
                 (A) (A) (A) (A) (A) (A) (A) (A) (A) (A) (A) (A)
                 (A) (A) (A) (A) (A) (A) (A) (A) (A) (A) (A) (A)
                 (A) (A) (A) (A) (A) (A) (A) (A) (A) (A) (A) (A)
                 (A) (A) (A) (A) (A) (A) (A) (A) (A) (A) (A) (A)
                 (A) (A) (A) (A)
 The electronic state is 2-A.
 Alpha  occ. eigenvalues --  -14.74258 -14.74111 -10.56788 -10.53827 -10.53013
 Alpha  occ. eigenvalues --   -1.00951  -0.94045  -0.87690  -0.75893  -0.67982
 Alpha  occ. eigenvalues --   -0.57705  -0.55618  -0.52977  -0.52276  -0.49387
 Alpha  occ. eigenvalues --   -0.46067  -0.42708  -0.41435  -0.40442  -0.38019
 Alpha  occ. eigenvalues --   -0.36227  -0.26300
 Alpha virt. eigenvalues --    0.00611   0.01251   0.01492   0.02155   0.04226
 Alpha virt. eigenvalues --    0.04980   0.05415   0.05954   0.06174   0.08565
 Alpha virt. eigenvalues --    0.09488   0.09972   0.10082   0.10954   0.12068
 Alpha virt. eigenvalues --    0.13483   0.14354   0.14874   0.15960   0.17122
 Alpha virt. eigenvalues --    0.18901   0.19050   0.19210   0.20526   0.21585
 Alpha virt. eigenvalues --    0.22165   0.23485   0.24642   0.25122   0.25988
 Alpha virt. eigenvalues --    0.26016   0.26874   0.27160   0.28597   0.29652
 Alpha virt. eigenvalues --    0.31244   0.31388   0.32385   0.32860   0.34122
 Alpha virt. eigenvalues --    0.35348   0.37399   0.38839   0.39250   0.40762
 Alpha virt. eigenvalues --    0.41221   0.41437   0.42346   0.44052   0.44633
 Alpha virt. eigenvalues --    0.46222   0.47286   0.49176   0.50187   0.50894
 Alpha virt. eigenvalues --    0.51552   0.52569   0.53622   0.55027   0.55841
 Alpha virt. eigenvalues --    0.56907   0.60586   0.60800   0.62166   0.63514
 Alpha virt. eigenvalues --    0.64012   0.65563   0.66192   0.67324   0.68132
 Alpha virt. eigenvalues --    0.68471   0.69069   0.70225   0.71246   0.71764
 Alpha virt. eigenvalues --    0.74305   0.76362   0.78335   0.80664   0.81226
 Alpha virt. eigenvalues --    0.83756   0.84282   0.85556   0.86557   0.86890
 Alpha virt. eigenvalues --    0.88550   0.90810   0.95481   0.96833   0.98428
 Alpha virt. eigenvalues --    1.00786   1.02182   1.03160   1.04711   1.06035
 Alpha virt. eigenvalues --    1.08745   1.10097   1.10931   1.14440   1.16806
 Alpha virt. eigenvalues --    1.17592   1.17967   1.19272   1.20835   1.22496
 Alpha virt. eigenvalues --    1.23286   1.24276   1.25395   1.28268   1.28414
 Alpha virt. eigenvalues --    1.31788   1.32711   1.33129   1.34587   1.35713
 Alpha virt. eigenvalues --    1.36524   1.38319   1.38945   1.41473   1.41787
 Alpha virt. eigenvalues --    1.43121   1.44744   1.45991   1.47316   1.49687
 Alpha virt. eigenvalues --    1.51872   1.52678   1.54293   1.56649   1.58117
 Alpha virt. eigenvalues --    1.63335   1.64541   1.65350   1.67221   1.69198
 Alpha virt. eigenvalues --    1.70504   1.73188   1.74865   1.75752   1.77576
 Alpha virt. eigenvalues --    1.80260   1.80657   1.87551   1.91467   1.93035
 Alpha virt. eigenvalues --    2.01045   2.05866   2.14182   2.46884   2.47205
 Alpha virt. eigenvalues --    2.51234   2.53388   2.54969   2.59418   2.62559
 Alpha virt. eigenvalues --    2.63787   2.67844   2.69913   2.72130   2.78151
 Alpha virt. eigenvalues --    2.78998   2.81416   2.84428   2.85114   2.87571
 Alpha virt. eigenvalues --    2.88380   2.89804   2.91142   2.93242   2.95169
 Alpha virt. eigenvalues --    2.98738   2.99639   3.00890   3.02175   3.03101
 Alpha virt. eigenvalues --    3.08943   3.09524   3.11505   3.11947   3.13212
 Alpha virt. eigenvalues --    3.14181   3.15079   3.15879   3.16462   3.18872
 Alpha virt. eigenvalues --    3.20432   3.22037   3.23653   3.24914   3.26098
 Alpha virt. eigenvalues --    3.27958   3.29671   3.30841   3.32398   3.32757
 Alpha virt. eigenvalues --    3.33498   3.37581   3.37875   3.39201   3.42585
 Alpha virt. eigenvalues --    3.44061   3.45511   3.46562   3.47544   3.48217
 Alpha virt. eigenvalues --    3.49665   3.52069   3.52790   3.53664   3.56497
 Alpha virt. eigenvalues --    3.59072   3.59755   3.60662   3.61995   3.63658
 Alpha virt. eigenvalues --    3.65693   3.67917   3.68629   3.73918   3.75612
 Alpha virt. eigenvalues --    3.77232   3.78373   3.83466   3.84336   3.85238
 Alpha virt. eigenvalues --    3.86982   3.87360   3.90628   3.91668   3.92549
 Alpha virt. eigenvalues --    3.93799   3.96431   3.96959   3.98745   3.99765
 Alpha virt. eigenvalues --    4.01271   4.02685   4.03351   4.04963   4.06153
 Alpha virt. eigenvalues --    4.07555   4.08749   4.09633   4.10761   4.12555
 Alpha virt. eigenvalues --    4.15157   4.15847   4.19778   4.20910   4.23156
 Alpha virt. eigenvalues --    4.23719   4.26633   4.27587   4.29017   4.31238
 Alpha virt. eigenvalues --    4.34097   4.35607   4.37942   4.41211   4.42625
 Alpha virt. eigenvalues --    4.43760   4.45597   4.48323   4.50741   4.56198
 Alpha virt. eigenvalues --    4.57234   4.59119   4.61469   4.65365   4.68398
 Alpha virt. eigenvalues --    4.70997   4.74310   4.79312   4.81079   4.84711
 Alpha virt. eigenvalues --    4.85889   4.88285   4.88633   4.90938   4.91711
 Alpha virt. eigenvalues --    4.94712   4.99538   5.00806   5.03985   5.06235
 Alpha virt. eigenvalues --    5.12633   5.16010   5.17028   5.23357   5.24833
 Alpha virt. eigenvalues --    5.27747   5.28538   5.32373   5.34471   5.35643
 Alpha virt. eigenvalues --    5.37974   5.42260   5.45002   5.46964   5.48905
 Alpha virt. eigenvalues --    5.52313   5.52772   5.57563   5.60448   5.66306
 Alpha virt. eigenvalues --    5.70920   5.72891   5.75357   5.82359   5.87028
 Alpha virt. eigenvalues --    5.92980   5.95545   6.00622   6.01574   6.02427
 Alpha virt. eigenvalues --    6.03598   6.09570   6.16645   6.27564   6.51185
 Alpha virt. eigenvalues --    6.92992   7.01968  12.19996  12.71042  13.41908
 Alpha virt. eigenvalues --   13.79890  13.94741
  Beta  occ. eigenvalues --  -14.73982 -14.73355 -10.56446 -10.53832 -10.53014
  Beta  occ. eigenvalues --   -1.00298  -0.90391  -0.87369  -0.75234  -0.67240
  Beta  occ. eigenvalues --   -0.57166  -0.54156  -0.52621  -0.50822  -0.47996
  Beta  occ. eigenvalues --   -0.45514  -0.42515  -0.40563  -0.40112  -0.35508
  Beta  occ. eigenvalues --   -0.30762
  Beta virt. eigenvalues --   -0.05736   0.00687   0.01290   0.01612   0.02281
  Beta virt. eigenvalues --    0.04292   0.05053   0.05670   0.06078   0.06195
  Beta virt. eigenvalues --    0.08542   0.09592   0.10113   0.10373   0.11067
  Beta virt. eigenvalues --    0.12096   0.13614   0.14486   0.14928   0.16107
  Beta virt. eigenvalues --    0.17337   0.18911   0.19058   0.19308   0.20669
  Beta virt. eigenvalues --    0.21770   0.22304   0.23541   0.24813   0.25405
  Beta virt. eigenvalues --    0.26049   0.26104   0.26925   0.27358   0.28725
  Beta virt. eigenvalues --    0.29893   0.31355   0.31497   0.32517   0.32938
  Beta virt. eigenvalues --    0.34570   0.35944   0.37660   0.39072   0.39290
  Beta virt. eigenvalues --    0.40718   0.41321   0.41570   0.42503   0.44015
  Beta virt. eigenvalues --    0.44535   0.46197   0.47305   0.49397   0.50280
  Beta virt. eigenvalues --    0.50838   0.51699   0.52621   0.53614   0.55044
  Beta virt. eigenvalues --    0.55738   0.56782   0.60643   0.60911   0.62290
  Beta virt. eigenvalues --    0.63733   0.64119   0.65681   0.66101   0.67243
  Beta virt. eigenvalues --    0.68328   0.68562   0.69232   0.70524   0.71365
  Beta virt. eigenvalues --    0.72055   0.74249   0.76429   0.78179   0.80782
  Beta virt. eigenvalues --    0.81421   0.83582   0.84309   0.85471   0.86658
  Beta virt. eigenvalues --    0.86965   0.88556   0.90684   0.95521   0.96873
  Beta virt. eigenvalues --    0.98503   1.00672   1.01874   1.03081   1.04587
  Beta virt. eigenvalues --    1.05857   1.08693   1.10051   1.10835   1.14334
  Beta virt. eigenvalues --    1.16713   1.17631   1.18152   1.19247   1.20831
  Beta virt. eigenvalues --    1.22464   1.23375   1.24262   1.25487   1.28408
  Beta virt. eigenvalues --    1.28658   1.31820   1.32870   1.33219   1.34618
  Beta virt. eigenvalues --    1.35758   1.36669   1.38785   1.38941   1.41853
  Beta virt. eigenvalues --    1.41929   1.43110   1.44928   1.46034   1.47668
  Beta virt. eigenvalues --    1.49874   1.52101   1.53016   1.54782   1.56890
  Beta virt. eigenvalues --    1.58309   1.63405   1.64744   1.65543   1.67435
  Beta virt. eigenvalues --    1.69656   1.71648   1.73349   1.75279   1.76318
  Beta virt. eigenvalues --    1.77863   1.80533   1.81177   1.87698   1.91653
  Beta virt. eigenvalues --    1.93429   2.01325   2.05990   2.16006   2.46944
  Beta virt. eigenvalues --    2.47150   2.51249   2.53461   2.55048   2.59378
  Beta virt. eigenvalues --    2.62883   2.63892   2.68037   2.69944   2.72149
  Beta virt. eigenvalues --    2.78155   2.79300   2.81331   2.84278   2.85091
  Beta virt. eigenvalues --    2.87211   2.88460   2.89834   2.91016   2.93249
  Beta virt. eigenvalues --    2.95177   2.98554   2.99571   3.01237   3.01870
  Beta virt. eigenvalues --    3.03727   3.09384   3.09718   3.11590   3.12054
  Beta virt. eigenvalues --    3.13130   3.14213   3.15387   3.16195   3.16706
  Beta virt. eigenvalues --    3.18713   3.20633   3.22286   3.23368   3.24780
  Beta virt. eigenvalues --    3.26370   3.28261   3.29670   3.31530   3.32683
  Beta virt. eigenvalues --    3.33662   3.33918   3.37810   3.37952   3.39270
  Beta virt. eigenvalues --    3.42586   3.44384   3.45590   3.46831   3.47861
  Beta virt. eigenvalues --    3.48250   3.49827   3.51914   3.52660   3.53897
  Beta virt. eigenvalues --    3.56688   3.59076   3.59511   3.60854   3.62173
  Beta virt. eigenvalues --    3.64000   3.66262   3.68288   3.68799   3.74481
  Beta virt. eigenvalues --    3.76184   3.77110   3.78806   3.83711   3.84801
  Beta virt. eigenvalues --    3.85262   3.87137   3.87471   3.91092   3.91906
  Beta virt. eigenvalues --    3.92707   3.93666   3.96346   3.97029   3.98725
  Beta virt. eigenvalues --    3.99876   4.01288   4.02531   4.03197   4.05190
  Beta virt. eigenvalues --    4.06325   4.07412   4.08823   4.09617   4.10761
  Beta virt. eigenvalues --    4.12924   4.15167   4.15730   4.19926   4.21067
  Beta virt. eigenvalues --    4.22868   4.24254   4.26991   4.27560   4.29752
  Beta virt. eigenvalues --    4.32863   4.34376   4.35885   4.38310   4.41253
  Beta virt. eigenvalues --    4.42486   4.43804   4.45348   4.48244   4.51153
  Beta virt. eigenvalues --    4.55931   4.57156   4.60598   4.62043   4.65654
  Beta virt. eigenvalues --    4.68431   4.71349   4.75091   4.79308   4.82571
  Beta virt. eigenvalues --    4.85234   4.86637   4.88589   4.88876   4.91228
  Beta virt. eigenvalues --    4.93980   4.96500   5.00297   5.01819   5.04489
  Beta virt. eigenvalues --    5.08806   5.12611   5.16233   5.17911   5.23541
  Beta virt. eigenvalues --    5.24622   5.27645   5.28807   5.32577   5.34419
  Beta virt. eigenvalues --    5.35895   5.38658   5.42729   5.46190   5.49030
  Beta virt. eigenvalues --    5.49260   5.52763   5.53768   5.58113   5.60949
  Beta virt. eigenvalues --    5.67027   5.71345   5.75620   5.78548   5.82965
  Beta virt. eigenvalues --    5.88360   5.93866   5.95651   6.00459   6.01555
  Beta virt. eigenvalues --    6.02189   6.03915   6.09346   6.16578   6.28139
  Beta virt. eigenvalues --    6.48446   7.00602   7.02420  12.22366  12.70797
  Beta virt. eigenvalues --   13.41989  13.79917  13.94853
          Condensed to atoms (all electrons):
               1          2          3          4          5          6
     1  C    5.275777   0.397018   0.405264   0.415257   0.280731  -0.017859
     2  H    0.397018   0.445492  -0.012274  -0.009392  -0.037371  -0.002591
     3  H    0.405264  -0.012274   0.440353  -0.015855  -0.035254  -0.006008
     4  H    0.415257  -0.009392  -0.015855   0.436490  -0.046965   0.003987
     5  C    0.280731  -0.037371  -0.035254  -0.046965   5.357070   0.386859
     6  H   -0.017859  -0.002591  -0.006008   0.003987   0.386859   0.420354
     7  H   -0.029615   0.003749  -0.004746  -0.001533   0.409662  -0.013507
     8  C   -0.062103  -0.000173   0.005923   0.002966   0.252645  -0.042156
     9  H    0.000221   0.003955  -0.000451   0.000532  -0.023482  -0.002870
    10  H   -0.002746   0.001190   0.000085   0.000029  -0.033047   0.002696
    11  N    0.016118  -0.000309  -0.001039   0.000568  -0.030000   0.002182
    12  H   -0.001436  -0.000024   0.000029  -0.000029   0.000438  -0.000441
    13  H   -0.000250   0.000066   0.000012  -0.000011  -0.003357  -0.001584
    14  N   -0.004658   0.002454   0.000284  -0.000634   0.009204   0.000275
    15  H    0.000986   0.000515  -0.000048  -0.000018  -0.000744  -0.000135
    16  H   -0.003742   0.001210  -0.000011   0.000006   0.006773  -0.001206
               7          8          9         10         11         12
     1  C   -0.029615  -0.062103   0.000221  -0.002746   0.016118  -0.001436
     2  H    0.003749  -0.000173   0.003955   0.001190  -0.000309  -0.000024
     3  H   -0.004746   0.005923  -0.000451   0.000085  -0.001039   0.000029
     4  H   -0.001533   0.002966   0.000532   0.000029   0.000568  -0.000029
     5  C    0.409662   0.252645  -0.023482  -0.033047  -0.030000   0.000438
     6  H   -0.013507  -0.042156  -0.002870   0.002696   0.002182  -0.000441
     7  H    0.415038  -0.030185   0.001657   0.000061  -0.009980   0.000093
     8  C   -0.030185   5.534804   0.320103   0.421398   0.063334   0.009682
     9  H    0.001657   0.320103   0.388080   0.003228  -0.017357  -0.007216
    10  H    0.000061   0.421398   0.003228   0.397870  -0.043159  -0.005900
    11  N   -0.009980   0.063334  -0.017357  -0.043159   6.967728   0.299567
    12  H    0.000093   0.009682  -0.007216  -0.005900   0.299567   0.484814
    13  H    0.001388   0.022274  -0.004069   0.004148   0.286632  -0.031159
    14  N   -0.000470  -0.142215   0.034242  -0.002640   0.009465   0.001745
    15  H    0.000001   0.004314   0.006720  -0.000549  -0.000245   0.000017
    16  H   -0.000173  -0.004106   0.008931  -0.000044   0.000395   0.000001
              13         14         15         16
     1  C   -0.000250  -0.004658   0.000986  -0.003742
     2  H    0.000066   0.002454   0.000515   0.001210
     3  H    0.000012   0.000284  -0.000048  -0.000011
     4  H   -0.000011  -0.000634  -0.000018   0.000006
     5  C   -0.003357   0.009204  -0.000744   0.006773
     6  H   -0.001584   0.000275  -0.000135  -0.001206
     7  H    0.001388  -0.000470   0.000001  -0.000173
     8  C    0.022274  -0.142215   0.004314  -0.004106
     9  H   -0.004069   0.034242   0.006720   0.008931
    10  H    0.004148  -0.002640  -0.000549  -0.000044
    11  N    0.286632   0.009465  -0.000245   0.000395
    12  H   -0.031159   0.001745   0.000017   0.000001
    13  H    0.486047   0.000650   0.000006  -0.000002
    14  N    0.000650   7.180096   0.266578   0.266940
    15  H    0.000006   0.266578   0.510033  -0.023343
    16  H   -0.000002   0.266940  -0.023343   0.510012
          Atomic-Atomic Spin Densities.
               1          2          3          4          5          6
     1  C   -0.006374   0.002409  -0.002315   0.000311   0.004952   0.000119
     2  H    0.002409   0.004609  -0.000684  -0.000559  -0.000462   0.000049
     3  H   -0.002315  -0.000684   0.002176   0.000158   0.000879  -0.000043
     4  H    0.000311  -0.000559   0.000158  -0.000483   0.000366  -0.000003
     5  C    0.004952  -0.000462   0.000879   0.000366  -0.014671   0.002727
     6  H    0.000119   0.000049  -0.000043  -0.000003   0.002727   0.003392
     7  H    0.002733  -0.000031  -0.000342   0.000168   0.005132  -0.000399
     8  C   -0.004475  -0.000234   0.000650  -0.000563  -0.024166  -0.001824
     9  H    0.001383  -0.001676   0.000177   0.000049  -0.002274   0.001650
    10  H   -0.001160   0.000107  -0.000021  -0.000177   0.004192  -0.000259
    11  N    0.001670  -0.000041  -0.000059   0.000078   0.005009  -0.000378
    12  H   -0.000205   0.000007   0.000001  -0.000004   0.000484  -0.000010
    13  H   -0.000298   0.000005   0.000005  -0.000006   0.000938  -0.000045
    14  N   -0.002132   0.000047   0.000173  -0.000234   0.011844  -0.000210
    15  H    0.000006  -0.000245   0.000009  -0.000025  -0.000060   0.000054
    16  H    0.000260  -0.000093   0.000007  -0.000022   0.000070   0.000305
               7          8          9         10         11         12
     1  C    0.002733  -0.004475   0.001383  -0.001160   0.001670  -0.000205
     2  H   -0.000031  -0.000234  -0.001676   0.000107  -0.000041   0.000007
     3  H   -0.000342   0.000650   0.000177  -0.000021  -0.000059   0.000001
     4  H    0.000168  -0.000563   0.000049  -0.000177   0.000078  -0.000004
     5  C    0.005132  -0.024166  -0.002274   0.004192   0.005009   0.000484
     6  H   -0.000399  -0.001824   0.001650  -0.000259  -0.000378  -0.000010
     7  H    0.012977  -0.011274  -0.000170   0.000373   0.006035  -0.000180
     8  C   -0.011274   0.487849   0.054241  -0.003632  -0.056862  -0.006643
     9  H   -0.000170   0.054241  -0.074251   0.003980  -0.001103   0.001815
    10  H    0.000373  -0.003632   0.003980  -0.015961   0.001628   0.000102
    11  N    0.006035  -0.056862  -0.001103   0.001628   0.115706   0.000581
    12  H   -0.000180  -0.006643   0.001815   0.000102   0.000581  -0.000627
    13  H   -0.000363  -0.003407   0.001505  -0.000401  -0.001122   0.001528
    14  N   -0.000952  -0.131053  -0.005244  -0.002500   0.005860   0.002280
    15  H   -0.000002  -0.002523  -0.001441   0.000064   0.000086   0.000019
    16  H    0.000005  -0.001750  -0.001517   0.000066   0.000003   0.000015
              13         14         15         16
     1  C   -0.000298  -0.002132   0.000006   0.000260
     2  H    0.000005   0.000047  -0.000245  -0.000093
     3  H    0.000005   0.000173   0.000009   0.000007
     4  H   -0.000006  -0.000234  -0.000025  -0.000022
     5  C    0.000938   0.011844  -0.000060   0.000070
     6  H   -0.000045  -0.000210   0.000054   0.000305
     7  H   -0.000363  -0.000952  -0.000002   0.000005
     8  C   -0.003407  -0.131053  -0.002523  -0.001750
     9  H    0.001505  -0.005244  -0.001441  -0.001517
    10  H   -0.000401  -0.002500   0.000064   0.000066
    11  N   -0.001122   0.005860   0.000086   0.000003
    12  H    0.001528   0.002280   0.000019   0.000015
    13  H   -0.000462   0.001381   0.000025   0.000026
    14  N    0.001381   0.836920   0.008908   0.008898
    15  H    0.000025   0.008908  -0.048053   0.002371
    16  H    0.000026   0.008898   0.002371  -0.048958
 Mulliken charges and spin densities:
               1          2
     1  C   -0.668962  -0.003116
     2  H    0.206484   0.003209
     3  H    0.223737   0.000771
     4  H    0.214601  -0.000947
     5  C   -0.493162  -0.005038
     6  H    0.272002   0.005125
     7  H    0.258561   0.013711
     8  C   -0.356504   0.294334
     9  H    0.287775  -0.022878
    10  H    0.257381  -0.013598
    11  N   -0.543899   0.077091
    12  H    0.249820  -0.000837
    13  H    0.239212  -0.000692
    14  N   -0.621318   0.733986
    15  H    0.235912  -0.040809
    16  H    0.238360  -0.040313
 Sum of Mulliken charges =  -0.00000   1.00000
 Mulliken charges and spin densities with hydrogens summed into heavy atoms:
               1          2
     1  C   -0.024139  -0.000083
     5  C    0.037401   0.013799
     8  C    0.188652   0.257858
    11  N   -0.054867   0.075562
    14  N   -0.147047   0.652864
 APT charges:
               1
     1  C    0.037980
     2  H   -0.005388
     3  H   -0.010157
     4  H   -0.013126
     5  C    0.003342
     6  H   -0.034827
     7  H   -0.032323
     8  C    0.866360
     9  H   -0.472017
    10  H   -0.092893
    11  N   -0.733979
    12  H    0.187373
    13  H    0.185722
    14  N   -0.124920
    15  H    0.123280
    16  H    0.115573
 Sum of APT charges =  -0.00000
 APT charges with hydrogens summed into heavy atoms:
               1
     1  C    0.009309
     5  C   -0.063809
     8  C    0.301450
    11  N   -0.360884
    14  N    0.113933
 Electronic spatial extent (au):  <R**2>=            643.9693
 Charge=             -0.0000 electrons
 Dipole moment (field-independent basis, Debye):
    X=             -1.2423    Y=              0.0755    Z=              0.0374  Tot=              1.2451
 Quadrupole moment (field-independent basis, Debye-Ang):
   XX=            -36.4316   YY=            -38.4272   ZZ=            -31.8391
   XY=             -3.8211   XZ=              0.8076   YZ=              1.1730
 Traceless Quadrupole moment (field-independent basis, Debye-Ang):
   XX=             -0.8656   YY=             -2.8613   ZZ=              3.7269
   XY=             -3.8211   XZ=              0.8076   YZ=              1.1730
 Octapole moment (field-independent basis, Debye-Ang**2):
  XXX=              1.4904  YYY=             12.5075  ZZZ=             -0.8298  XYY=             -7.3180
  XXY=            -15.0603  XXZ=              1.7550  XZZ=              3.9030  YZZ=              0.0166
  YYZ=              0.7126  XYZ=              2.8544
 Hexadecapole moment (field-independent basis, Debye-Ang**3):
 XXXX=           -433.9458 YYYY=           -374.0018 ZZZZ=            -76.8438 XXXY=            -35.6043
 XXXZ=             10.1506 YYYX=             -2.9551 YYYZ=              8.9131 ZZZX=             -2.1537
 ZZZY=              0.9578 XXYY=           -148.7819 XXZZ=            -81.9813 YYZZ=            -65.1213
 XXYZ=              3.0290 YYXZ=              3.3159 ZZXY=             -3.3028
 N-N= 1.891436362480D+02 E-N=-9.132867721569D+02  KE= 2.289474889325D+02
  Exact polarizability:      68.837       5.506      97.989      -1.222      -1.963      55.092
 Approx polarizability:      71.058       4.254      97.554      -1.024      -2.061      68.576
                          Isotropic Fermi Contact Couplings
        Atom                 a.u.       MegaHertz       Gauss      10(-4) cm-1
     1  C(13)             -0.00074      -0.83607      -0.29833      -0.27888
     2  H(1)               0.00004       0.19411       0.06926       0.06475
     3  H(1)              -0.00007      -0.29961      -0.10691      -0.09994
     4  H(1)              -0.00005      -0.23016      -0.08213      -0.07677
     5  C(13)             -0.00291      -3.27674      -1.16922      -1.09300
     6  H(1)               0.00140       6.24349       2.22783       2.08260
     7  H(1)               0.00655      29.26515      10.44253       9.76180
     8  C(13)              0.12871     144.68906      51.62865      48.26307
     9  H(1)              -0.01298     -58.01601     -20.70156     -19.35206
    10  H(1)               0.00099       4.41828       1.57655       1.47378
    11  N(14)              0.01817       5.87198       2.09527       1.95868
    12  H(1)               0.00051       2.26778       0.80920       0.75645
    13  H(1)               0.00059       2.62803       0.93775       0.87662
    14  N(14)              0.18351      59.29256      21.15706      19.77787
    15  H(1)              -0.01157     -51.70879     -18.45098     -17.24820
    16  H(1)              -0.01154     -51.59477     -18.41030     -17.21016
 --------------------------------------------------------
       Center         ----  Spin Dipole Couplings  ----
                      3XX-RR        3YY-RR        3ZZ-RR
 --------------------------------------------------------
     1   Atom        0.006536     -0.002637     -0.003899
     2   Atom        0.007950     -0.002580     -0.005370
     3   Atom        0.003372     -0.001374     -0.001998
     4   Atom        0.004528     -0.002024     -0.002503
     5   Atom        0.012647     -0.005892     -0.006754
     6   Atom       -0.000527     -0.002349      0.002875
     7   Atom        0.002575      0.001389     -0.003964
     8   Atom       -0.131019      0.324139     -0.193120
     9   Atom       -0.064421      0.150537     -0.086115
    10   Atom       -0.021132     -0.007080      0.028212
    11   Atom       -0.102895      0.209882     -0.106987
    12   Atom        0.007899     -0.000586     -0.007313
    13   Atom       -0.010423      0.000207      0.010216
    14   Atom       -0.291637      0.927781     -0.636145
    15   Atom       -0.044346      0.010793      0.033553
    16   Atom        0.003034     -0.024121      0.021087
 --------------------------------------------------------
                        XY            XZ            YZ
 --------------------------------------------------------
     1   Atom       -0.000164      0.000577      0.000434
     2   Atom       -0.001603      0.000115     -0.000690
     3   Atom        0.000160      0.000814     -0.000115
     4   Atom        0.000026     -0.002584     -0.000080
     5   Atom        0.010209      0.010891      0.003953
     6   Atom        0.003005      0.006969      0.001924
     7   Atom        0.004653      0.002731      0.000824
     8   Atom        0.215955     -0.041064     -0.106100
     9   Atom        0.091841     -0.018881     -0.052052
    10   Atom        0.008354     -0.007409     -0.004989
    11   Atom        0.063171     -0.003403     -0.033581
    12   Atom       -0.004076      0.009553     -0.002549
    13   Atom       -0.000960     -0.006082      0.004809
    14   Atom        0.912073     -0.275156     -0.513486
    15   Atom       -0.006830     -0.052162      0.053359
    16   Atom        0.001817      0.072722     -0.036735
 --------------------------------------------------------


 ---------------------------------------------------------------------------------
              Anisotropic Spin Dipole Couplings in Principal Axis System
 ---------------------------------------------------------------------------------

       Atom             a.u.   MegaHertz   Gauss  10(-4) cm-1        Axes

              Baa    -0.0041    -0.546    -0.195    -0.182 -0.0565 -0.2959  0.9536
     1 C(13)  Bbb    -0.0025    -0.336    -0.120    -0.112 -0.0016  0.9551  0.2963
              Bcc     0.0066     0.882     0.315     0.294  0.9984 -0.0152  0.0544
 
              Baa    -0.0055    -2.954    -1.054    -0.985  0.0199  0.2375  0.9712
     2 H(1)   Bbb    -0.0027    -1.417    -0.506    -0.473  0.1477  0.9600 -0.2378
              Bcc     0.0082     4.371     1.560     1.458  0.9888 -0.1482  0.0159
 
              Baa    -0.0021    -1.143    -0.408    -0.381 -0.1488  0.1764  0.9730
     3 H(1)   Bbb    -0.0014    -0.722    -0.258    -0.241 -0.0025  0.9839 -0.1787
              Bcc     0.0035     1.866     0.666     0.622  0.9889  0.0290  0.1459
 
              Baa    -0.0034    -1.790    -0.639    -0.597  0.3109  0.0512  0.9490
     4 H(1)   Bbb    -0.0020    -1.078    -0.385    -0.360 -0.0223  0.9987 -0.0466
              Bcc     0.0054     2.868     1.023     0.957  0.9502  0.0067 -0.3117
 
              Baa    -0.0118    -1.585    -0.566    -0.529 -0.4883  0.2931  0.8220
     5 C(13)  Bbb    -0.0100    -1.346    -0.480    -0.449 -0.1917  0.8829 -0.4286
              Bcc     0.0218     2.931     1.046     0.978  0.8514  0.3668  0.3750
 
              Baa    -0.0064    -3.424    -1.222    -1.142  0.7859 -0.3344 -0.5201
     6 H(1)   Bbb    -0.0029    -1.553    -0.554    -0.518  0.1029  0.9001 -0.4233
              Bcc     0.0093     4.977     1.776     1.660  0.6097  0.2791  0.7418
 
              Baa    -0.0051    -2.731    -0.975    -0.911 -0.4317  0.1972  0.8802
     7 H(1)   Bbb    -0.0022    -1.152    -0.411    -0.384 -0.5035  0.7569 -0.4166
              Bcc     0.0073     3.883     1.386     1.295  0.7484  0.6231  0.2275
 
              Baa    -0.2175   -29.191   -10.416    -9.737  0.8664 -0.4031 -0.2947
     8 C(13)  Bbb    -0.2135   -28.649   -10.223    -9.556  0.3416  0.0480  0.9386
              Bcc     0.4310    57.840    20.639    19.293  0.3642  0.9139 -0.1793
 
              Baa    -0.0984   -52.492   -18.731   -17.510  0.9019 -0.3769 -0.2111
     9 H(1)   Bbb    -0.0969   -51.724   -18.456   -17.253  0.2671  0.1024  0.9582
              Bcc     0.1953   104.216    37.187    34.763  0.3395  0.9206 -0.1930
 
              Baa    -0.0254   -13.572    -4.843    -4.527  0.9155 -0.3922  0.0900
    10 H(1)   Bbb    -0.0049    -2.616    -0.934    -0.873  0.3661  0.9046  0.2182
              Bcc     0.0303    16.189     5.777     5.400 -0.1670 -0.1668  0.9718
 
              Baa    -0.1167    -4.499    -1.605    -1.501  0.8745 -0.2139 -0.4353
    11 N(14)  Bbb    -0.1089    -4.200    -1.499    -1.401  0.4467  0.0057  0.8947
              Bcc     0.2256     8.699     3.104     2.902  0.1889  0.9768 -0.1006
 
              Baa    -0.0119    -6.373    -2.274    -2.126 -0.4248  0.0504  0.9039
    12 H(1)   Bbb    -0.0021    -1.131    -0.403    -0.377  0.3016  0.9493  0.0888
              Bcc     0.0141     7.504     2.677     2.503  0.8536 -0.3103  0.4184
 
              Baa    -0.0121    -6.452    -2.302    -2.152  0.9627 -0.0300  0.2689
    13 H(1)   Bbb    -0.0016    -0.834    -0.298    -0.278  0.1192  0.9392 -0.3219
              Bcc     0.0137     7.286     2.600     2.430 -0.2429  0.3420  0.9078
 
              Baa    -0.7901   -30.472   -10.873   -10.164  0.1719  0.1972  0.9652
    14 N(14)  Bbb    -0.7790   -30.044   -10.720   -10.022  0.8734 -0.4838 -0.0567
              Bcc     1.5691    60.515    21.593    20.186  0.4557  0.8527 -0.2554
 
              Baa    -0.0752   -40.141   -14.323   -13.390  0.8167 -0.2559  0.5171
    15 H(1)   Bbb    -0.0169    -9.027    -3.221    -3.011  0.4772  0.8034 -0.3561
              Bcc     0.0922    49.168    17.544    16.401 -0.3243  0.5377  0.7783
 
              Baa    -0.0753   -40.175   -14.336   -13.401 -0.6031  0.4792  0.6377
    16 H(1)   Bbb    -0.0163    -8.679    -3.097    -2.895  0.5080  0.8471 -0.1560
              Bcc     0.0916    48.854    17.432    16.296  0.6149 -0.2299  0.7543
 

 ---------------------------------------------------------------------------------

 No NMR shielding tensors so no spin-rotation constants.
 Leave Link  601 at Wed Jun 23 20:51:06 2021, MaxMem=   104857600 cpu:               0.7 elap:               0.7
 (Enter /opt/gaussian/g16/l701.exe)
 ... and contract with generalized density number  0.
 Compute integral second derivatives.
 Leave Link  701 at Wed Jun 23 20:51:07 2021, MaxMem=   104857600 cpu:               0.7 elap:               0.7
 (Enter /opt/gaussian/g16/l702.exe)
 L702 exits ... SP integral derivatives will be done elsewhere.
 Leave Link  702 at Wed Jun 23 20:51:07 2021, MaxMem=   104857600 cpu:               0.0 elap:               0.1
 (Enter /opt/gaussian/g16/l703.exe)
 Integral derivatives from FoFJK, PRISM(SPDF).
 Compute integral second derivatives, UseDBF=F ICtDFT=           0.
 Calling FoFJK, ICntrl=    100127 FMM=F ISym2X=0 I1Cent= 0 IOpClX= 1 NMat=1 NMatS=1 NMatT=0.
 FoFJK:  IHMeth= 1 ICntrl=  100127 DoSepK=F KAlg= 0 I1Cent=           0 FoldK=F
 IRaf=         0 NMat=       1 IRICut=       1 DoRegI=T DoRafI=F ISym2E= 0 IDoP0=0 IntGTp=1.
 FoFCou: FMM=F IPFlag=           0 FMFlag=      100000 FMFlg1=         800
         NFxFlg=           0 DoJE=F BraDBF=F KetDBF=F FulRan=T
         wScrn=  0.000000 ICntrl=    100127 IOpCl=  1 I1Cent=           0 NGrid=           0
         NMat0=    1 NMatS0=      1 NMatT0=    0 NMatD0=    1 NMtDS0=    0 NMtDT0=    0
 Symmetry not used in FoFCou.
 Leave Link  703 at Wed Jun 23 21:31:37 2021, MaxMem=   104857600 cpu:            2429.8 elap:            2429.9
 (Enter /opt/gaussian/g16/l716.exe)
 Dipole        =-4.88750823D-01 2.96924848D-02 1.47003758D-02
 Polarizability= 6.88368419D+01 5.50559944D+00 9.79891031D+01
                -1.22213618D+00-1.96292147D+00 5.50919221D+01
 Full mass-weighted force constant matrix:
 Low frequencies --- -949.1268   -8.7202   -0.0013   -0.0005    0.0011    6.8615
 Low frequencies ---    8.8638   65.4154  101.3171
 ******    1 imaginary frequencies (negative Signs) ****** 
 Diagonal vibrational polarizability:
       21.4662611     138.8512372     247.2322757
 Harmonic frequencies (cm**-1), IR intensities (KM/Mole), Raman scattering
 activities (A**4/AMU), depolarization ratios for plane and unpolarized
 incident light, reduced masses (AMU), force constants (mDyne/A),
 and normal coordinates:
                      1                      2                      3
                      A                      A                      A
 Frequencies --   -949.1267                65.3178               101.3123
 Red. masses --      1.3689                 1.3030                 1.8464
 Frc consts  --      0.7266                 0.0033                 0.0112
 IR Inten    --   1852.9542                36.8167                 2.7172
  Atom  AN      X      Y      Z        X      Y      Z        X      Y      Z
     1   6     0.00   0.00   0.00    -0.05  -0.06   0.03    -0.06  -0.04  -0.06
     2   1     0.00  -0.00  -0.00    -0.06  -0.04   0.23    -0.12  -0.05  -0.38
     3   1     0.01  -0.02  -0.00     0.00   0.01  -0.07    -0.12  -0.22   0.07
     4   1     0.00  -0.00   0.00    -0.13  -0.24  -0.02     0.06   0.24   0.01
     5   6     0.01   0.02  -0.00     0.01   0.04  -0.05    -0.08  -0.12   0.08
     6   1    -0.00   0.00  -0.01     0.05   0.18  -0.02    -0.15  -0.34   0.03
     7   1     0.02   0.01   0.01     0.06   0.02  -0.18    -0.06  -0.11   0.31
     8   6     0.02  -0.02  -0.03    -0.02   0.02   0.02    -0.03   0.04  -0.04
     9   1     0.36   0.80  -0.31    -0.01   0.01   0.02    -0.08   0.05  -0.12
    10   1     0.14   0.26   0.00    -0.07  -0.01   0.01     0.06   0.11  -0.02
    11   7    -0.01   0.06   0.01    -0.00   0.02   0.04     0.01   0.08  -0.04
    12   1    -0.01  -0.05   0.03    -0.03  -0.00   0.10     0.04   0.20  -0.12
    13   1    -0.04  -0.09  -0.01     0.06   0.08   0.05    -0.08   0.02  -0.06
    14   7    -0.06  -0.13   0.04     0.04  -0.03  -0.09     0.14   0.01   0.05
    15   1     0.06   0.02  -0.02     0.62  -0.08   0.22     0.35  -0.07   0.19
    16   1     0.07   0.06  -0.02    -0.35   0.23   0.34     0.10   0.29   0.17
                      4                      5                      6
                      A                      A                      A
 Frequencies --    105.5290               154.5472               231.2704
 Red. masses --      1.8009                 2.3094                 1.1179
 Frc consts  --      0.0118                 0.0325                 0.0352
 IR Inten    --     15.7314                14.3516                 4.2722
  Atom  AN      X      Y      Z        X      Y      Z        X      Y      Z
     1   6    -0.10  -0.11   0.06    -0.03  -0.08   0.06     0.00  -0.01   0.04
     2   1    -0.15  -0.07   0.23    -0.09  -0.06   0.13    -0.24   0.03  -0.36
     3   1    -0.07  -0.07  -0.01    -0.04  -0.09   0.08    -0.19  -0.35   0.41
     4   1    -0.15  -0.28   0.02     0.02  -0.19   0.05     0.42   0.23   0.17
     5   6    -0.02   0.03  -0.04     0.01   0.01  -0.05     0.01   0.05  -0.07
     6   1    -0.00   0.17  -0.01    -0.09   0.05  -0.07    -0.00   0.13  -0.06
     7   1     0.05  -0.01  -0.17     0.09  -0.02  -0.04     0.03   0.03  -0.14
     8   6    -0.05   0.04   0.01     0.05   0.09  -0.13    -0.01  -0.00  -0.02
     9   1    -0.05   0.04   0.08     0.15   0.04  -0.34     0.01  -0.01   0.03
    10   1    -0.08  -0.02   0.01     0.07   0.37  -0.11    -0.08  -0.04  -0.03
    11   7     0.00   0.09   0.00    -0.07  -0.15   0.10     0.00  -0.01   0.02
    12   1    -0.01   0.14   0.00    -0.00  -0.05  -0.04    -0.10  -0.16   0.23
    13   1     0.00   0.12   0.00    -0.20  -0.57   0.05     0.22   0.14   0.08
    14   7     0.15  -0.05   0.00     0.05   0.16   0.03    -0.00  -0.01  -0.00
    15   1    -0.22   0.17  -0.31    -0.13  -0.08   0.09     0.01  -0.00  -0.01
    16   1     0.51  -0.25  -0.37     0.14   0.27  -0.03    -0.02  -0.04   0.01
                      7                      8                      9
                      A                      A                      A
 Frequencies --    269.5272               301.4651               450.6920
 Red. masses --      1.6255                 1.4055                 2.7923
 Frc consts  --      0.0696                 0.0753                 0.3342
 IR Inten    --      3.8070                32.2158                17.4978
  Atom  AN      X      Y      Z        X      Y      Z        X      Y      Z
     1   6     0.07   0.03   0.07     0.07   0.02   0.03    -0.20   0.10   0.00
     2   1     0.30  -0.03   0.25     0.12   0.00  -0.02    -0.34   0.15  -0.02
     3   1     0.05   0.34   0.04    -0.02   0.07   0.18    -0.12  -0.05  -0.12
     4   1     0.02  -0.10   0.04     0.23   0.04   0.07    -0.33   0.12  -0.02
     5   6    -0.10  -0.09  -0.05    -0.02  -0.02  -0.09    -0.08   0.11   0.04
     6   1    -0.20  -0.17  -0.08     0.00   0.08  -0.07    -0.18   0.12   0.03
     7   1    -0.14  -0.06   0.07    -0.08  -0.01  -0.17    -0.15   0.13   0.03
     8   6    -0.06  -0.02  -0.12    -0.07  -0.03  -0.01     0.08  -0.06  -0.09
     9   1    -0.12  -0.01  -0.17    -0.13  -0.06   0.03     0.09  -0.19  -0.11
    10   1    -0.08   0.06  -0.11    -0.16  -0.04  -0.02     0.13  -0.02  -0.08
    11   7     0.06   0.04   0.05     0.05   0.05   0.07     0.23  -0.07   0.04
    12   1    -0.13  -0.07   0.41     0.21   0.60  -0.33     0.20   0.31   0.02
    13   1     0.45   0.22   0.13    -0.36  -0.35  -0.03     0.26  -0.17   0.04
    14   7     0.00   0.01   0.00    -0.02  -0.04   0.00    -0.01  -0.06   0.00
    15   1    -0.05  -0.06   0.02     0.03  -0.03   0.02    -0.16  -0.32   0.10
    16   1     0.10   0.15  -0.05    -0.03  -0.01   0.03    -0.07  -0.11   0.04
                     10                     11                     12
                      A                      A                      A
 Frequencies --    594.6715               614.5848               787.2644
 Red. masses --      1.4155                 1.1713                 1.1706
 Frc consts  --      0.2949                 0.2607                 0.4275
 IR Inten    --     73.6953                 2.9334                74.1134
  Atom  AN      X      Y      Z        X      Y      Z        X      Y      Z
     1   6    -0.04   0.02   0.00     0.00   0.00  -0.00     0.02   0.02  -0.01
     2   1    -0.01   0.01  -0.03     0.01  -0.01  -0.07    -0.28   0.14   0.22
     3   1    -0.03   0.00  -0.01     0.02  -0.03  -0.02    -0.01  -0.16   0.06
     4   1    -0.05   0.06   0.01    -0.03   0.07   0.00     0.12  -0.32  -0.04
     5   6    -0.04  -0.02  -0.00     0.01   0.00   0.03     0.05   0.07  -0.03
     6   1    -0.01   0.08   0.02     0.16   0.22   0.09    -0.02  -0.42  -0.11
     7   1    -0.12  -0.00  -0.12    -0.04  -0.01  -0.24    -0.08   0.16   0.45
     8   6    -0.00  -0.14   0.02    -0.02  -0.07   0.07    -0.01  -0.00   0.00
     9   1    -0.03   0.22   0.10    -0.11  -0.02  -0.20    -0.04  -0.02   0.07
    10   1     0.03  -0.17   0.02     0.08   0.01   0.09    -0.16  -0.12  -0.03
    11   7     0.05  -0.04   0.00     0.00  -0.00  -0.01    -0.00  -0.04   0.00
    12   1     0.04  -0.12   0.03     0.01   0.01  -0.02     0.01   0.17  -0.06
[...]

 ----------------------------------------------------------------------

 Dipole orientation:
     6          0.17319468          0.41874071          3.82330037
     1          0.19607320          2.40806402          3.28329896
     1         -0.96323189          0.23809927          5.52907896
     1          2.10564798         -0.12528503          4.29079990
     6         -0.86138560         -1.22105263          1.69741357
     1         -2.81898302         -0.69629171          1.28575382
     1         -0.89442733         -3.20386586          2.27277748
     6          0.67907009         -0.99447560         -0.70119507
     1          0.58512270          1.18351965         -1.36391351
     1          2.68245491         -1.35237479         -0.36036738
     7         -0.22507623         -2.59202710         -2.68597460
     1          0.78348105         -2.38535407         -4.29557255
     1         -2.06346632         -2.24546761         -3.08699325
     7          0.20458774          3.79518398         -2.21682700
     1          1.78349064          4.55362590         -1.39336460
     1         -1.20791709          4.24458812         -0.97145391

 Electric dipole moment (dipole orientation):
 (Debye = 10**-18 statcoulomb cm , SI units = C m)
                  (au)            (Debye)         (10**-30 SI)
   Tot        0.489873D+00      0.124513D+01      0.415331D+01
   x          0.000000D+00      0.000000D+00      0.000000D+00
   y          0.000000D+00      0.000000D+00      0.000000D+00
   z          0.489873D+00      0.124513D+01      0.415331D+01

 Dipole polarizability, Alpha (dipole orientation).
 (esu units = cm**3 , SI units = C**2 m**2 J**-1)
 Alpha(0;0):
               (au)            (10**-24 esu)      (10**-40 SI)
   iso        0.739726D+02      0.109616D+02      0.121964D+02
   aniso      0.393249D+02      0.582735D+01      0.648380D+01
   xx         0.550918D+02      0.816376D+01      0.908341D+01
   yx         0.245759D+01      0.364177D+00      0.405202D+00
   yy         0.984944D+02      0.145954D+02      0.162395D+02
   zx         0.322854D+00      0.478420D-01      0.532314D-01
   zy        -0.381150D+01     -0.564806D+00     -0.628431D+00
   zz         0.683317D+02      0.101257D+02      0.112664D+02

 ----------------------------------------------------------------------
 Unable to Open any file for archive entry.
 1\1\GINC-A29\Freq\UM062X\Jun-CC-pVTZ\C3H11N2(2)\ROOT\23-Jun-2021\0\\#P
  freq m062x/jun-cc-pvtz\\Generated by Multiwfn\\0,2\C,-1.980199,0.4589
 42,0.137976\H,-1.581107,1.467313,0.020062\H,-2.915813,0.401642,-0.4160
 29\H,-2.207958,0.3143,1.194866\C,-0.984243,-0.585617,-0.347032\H,-0.78
 7575,-0.449132,-1.414919\H,-1.401798,-1.589044,-0.234182\C,0.328336,-0
 .522701,0.403406\H,0.799813,0.570136,0.210438\H,0.179679,-0.573611,1.4
 83969\N,1.255916,-1.529166,-0.01295\H,2.139239,-1.459852,0.474121\H,1.
 439749,-1.478284,-1.007278\N,1.388938,1.861609,-0.162798\H,1.040299,2.
 398618,0.636659\H,0.724541,2.089907,-0.908471\\Version=ES64L-G16RevC.0
 1\State=2-A\HF=-230.3280446\S2=0.759502\S2-1=0.\S2A=0.750049\RMSD=3.77
 9e-09\RMSF=1.134e-06\ZeroPoint=0.140273\Thermal=0.1484613\ETot=-230.17
 95833\HTot=-230.1786391\GTot=-230.2207237\Dipole=-0.4863794,0.0557203,
 0.0174775\DipoleDeriv=0.020731,0.030795,0.0001585,0.0195206,0.0090291,
 -0.0056436,-0.0218378,-0.0304056,0.0841798,0.0326904,-0.0849084,0.0186
 976,-0.0256001,-0.092922,0.0011499,0.0272092,0.0167859,0.0440684,-0.11
 78465,0.0155213,-0.0626128,0.0049374,0.0697711,-0.0206565,-0.0903458,-
 0.0075525,0.0176047,0.0448467,0.0224312,0.0145195,0.009203,0.0409612,0
 .0342398,0.0671505,0.0022874,-0.1251857,0.0313175,0.0346265,-0.0152548
 ,-0.1069409,-0.0988085,0.0007776,-0.0036632,0.1309218,0.077516,-0.0036
 008,0.0241452,0.0647014,0.0223253,0.0426178,0.0225907,0.0310908,-0.016
 5672,-0.1434988,-0.038014,-0.0872356,0.0055156,-0.0520587,-0.1189649,-
 0.008475,-0.0178694,-0.0198606,0.0600099,0.4748308,-0.0770578,-0.08286
 94,0.2743255,1.9057032,-0.1536748,-0.0504968,0.0560716,0.2185464,-0.11
 5371,-0.5639428,0.0604614,-0.3187594,-1.2981771,0.1243575,0.0821465,0.
 315169,-0.0025034,-0.03097,-0.0911283,0.0434383,-0.0338259,-0.1178158,
 0.0319043,0.008946,-0.02686,-0.1298927,-0.4734573,0.3579258,0.012846,0
 .0321661,-1.4785718,0.0631312,0.0039129,-0.1580475,-0.2499067,0.065106
 2,0.0101506,-0.0188199,-0.0428055,0.3313262,-0.0766671,-0.00901,-0.136
 2823,0.1656869,0.1636797,0.0943619,0.0057986,0.0211445,0.328153,0.0796
 621,0.0322161,0.0710579,0.0653326,-0.2612024,0.2121879,-0.0196768,0.01
 50752,0.1538972,-0.0261879,-0.0157866,-0.1485886,-0.2674553,0.1487077,
 0.0718726,0.0982065,0.0989197,0.1538675,-0.0647268,0.091364,0.0048508,
 0.0672657,0.0585519,0.0302548,-0.1251097,0.0823734,0.1699339,-0.001781
 3,-0.1350264,-0.0529801,0.1182322\Polar=69.4798838,6.9811047,97.269094
 7,-1.5177038,-2.4895592,55.1688886\Quadrupole=-0.9382084,-1.8002359,2.
 7384443,-2.8883148,0.7096106,0.9187807\PG=C01 [X(C3H11N2)]\NImag=1\\0.
 54323530,0.04021705,0.52736153,0.02508508,-0.02118985,0.56377832,-0.08
 452324,-0.09320096,0.01153239,0.09076018,-0.09191806,-0.27117894,0.028
 62132,0.09931987,0.29756573,0.01141401,0.02890159,-0.05172993,-0.01427
 523,-0.02980413,0.05134940,-0.24522794,-0.01449289,-0.11972186,-0.0099
 8493,-0.00048884,-0.00574931,0.26629721,-0.01565538,-0.04760819,-0.008
 91470,-0.02531400,-0.00084687,-0.01666357,0.01353889,0.04989353,-0.120
 82658,-0.00827430,-0.11951472,0.00476654,-0.00017956,0.00173792,0.1303
 6657,0.01076483,0.12621657,-0.05804485,-0.00848595,0.05132115,-0.00329
 018,-0.00129248,0.01233057,0.00699391,0.00476903,-0.02741119,0.0609608
 7,-0.00878350,-0.05279280,0.03861196,-0.00477849,-0.00361497,0.0297578
 1,0.00062140,-0.00083217,-0.00274955,0.00578631,0.05536663,0.05174734,
 0.03747683,-0.29715745,0.00016249,0.00066503,-0.00246524,0.00362544,0.
 00266210,-0.01539546,-0.05870520,-0.03968136,0.32287076,-0.13070045,0.
 05552752,0.02740016,0.00868955,-0.00811853,-0.00476638,-0.01741845,0.0
 2102058,0.01185080,-0.00577750,0.00551840,0.00238598,0.48819915,0.0543
 4917,-0.13955157,-0.03026854,0.02140234,-0.02193897,-0.01124558,-0.002
 65470,0.00148330,0.00142893,-0.00326862,0.00315083,0.00087712,0.028531
 47,0.55316929,0.02537094,-0.02811531,-0.09324734,-0.00344448,0.0025148
 6,0.00084412,-0.01085040,0.01377293,0.00610081,0.02164465,-0.02466100,
 -0.01046798,-0.02255566,-0.01640903,0.56076559,-0.00530366,-0.00294985
 ,0.02273380,0.00090114,-0.00018173,-0.00077974,0.00035699,-0.00081899,
 -0.00025399,-0.00251383,0.00389014,0.00112073,-0.05570886,-0.00710521,
 0.04536500,0.06332733,0.00506537,0.00254509,-0.02402614,-0.00091431,0.
 00086285,0.00006257,-0.00064934,0.00087510,0.00070197,0.00337338,-0.00
 285517,-0.00190918,-0.00742716,-0.05321530,0.03615760,0.00504308,0.055
 15158,0.00221131,0.00080267,-0.00902515,-0.00025001,-0.00024652,0.0002
 4040,0.00029959,-0.00005192,0.00053770,0.00109729,-0.00154225,0.000910
 92,0.04553877,0.03448940,-0.28840703,-0.04785641,-0.03632565,0.3171279
 0,0.00857647,0.02283605,-0.00272207,-0.00285858,0.00380356,0.00182981,
 0.00082527,-0.00066790,-0.00058160,0.00081594,-0.00097047,-0.00018760,
 -0.08406168,-0.09359124,0.01300392,-0.00279970,-0.00507832,0.00084777,
 0.09529198,-0.00733727,-0.02039946,0.00234709,0.00335151,-0.00161306,-
 0.00175471,0.00011602,0.00057665,0.00046359,-0.00036455,0.00087010,-0.
 00034567,-0.09204965,-0.26434625,0.02865343,-0.00164094,-0.00382721,0.
 00118904,0.09955736,0.28945533,-0.00403241,-0.01067973,0.00080784,0.00
 125933,-0.00195244,0.00010411,-0.00016259,0.00068717,0.00017038,-0.000
 73192,0.00001817,0.00032718,0.01252327,0.02811710,-0.05223490,0.012570
 83,0.02933924,-0.00393660,-0.01207692,-0.02887939,0.05369446,-0.024228
 15,0.00359673,-0.00834626,0.00155807,-0.00181361,-0.00024751,-0.000444
 16,0.00114196,0.00113134,0.00104352,-0.00089763,-0.00074873,-0.1658007
 3,-0.01307080,-0.05934495,0.00329053,-0.00033609,0.00199386,-0.0159208
 2,-0.00238099,-0.00911195,0.48417307,0.02267084,0.00241232,0.01349203,
 0.00128399,-0.00151967,0.00045136,0.00392760,-0.00457142,-0.00161575,-
 0.00086727,0.00025398,0.00027819,-0.00225050,-0.06492207,-0.00968220,0
 .00414804,-0.00035086,0.00193964,-0.02644569,-0.00377250,-0.01579716,-
 0.07275023,0.32082053,0.01061439,0.00252106,0.00689598,-0.00002532,0.0
 0005213,0.00016415,0.00307522,-0.00266425,-0.00099430,0.00187104,-0.00
 054661,0.00039202,-0.05646518,-0.01284929,-0.11838611,-0.03146423,-0.0
 0336803,-0.01977403,0.00166894,-0.00106508,0.00090200,-0.00668749,0.03
 031991,0.60317395,0.00088884,-0.00203626,-0.00004221,-0.00042026,0.001
 32318,-0.00005380,0.00018554,0.00059181,-0.00008765,0.00000951,0.00011
 385,0.00001484,-0.01399652,-0.02324207,0.00352588,0.00124422,0.0003371
 3,0.00029044,-0.00357625,0.00032557,-0.00258932,-0.03827258,0.01299241
 ,0.00174280,0.04610110,0.00090852,-0.00165812,-0.00032554,-0.00011485,
 0.00145278,0.00016879,-0.00022045,0.00099186,-0.00015040,0.00005323,0.
 00024431,-0.00005819,-0.00702282,-0.01357263,0.00384760,0.00058160,0.0
 0015920,0.00023649,-0.00088463,0.00159697,-0.00117420,-0.00237723,0.01
 337098,0.00469478,-0.02769487,0.01595016,0.00043530,0.00026586,0.00021
 245,0.00017833,-0.00007634,0.00020607,0.00019870,-0.00023161,-0.000128
 06,0.00000086,0.00003559,-0.00006010,-0.00676274,-0.00877873,0.0002900
 1,0.00014997,-0.00047211,0.00032801,-0.00236053,-0.00100064,-0.0003868
 6,-0.00097036,-0.01136567,-0.04316954,0.01016588,0.01823324,0.05651724
 ,0.00190080,-0.00080393,-0.00088914,-0.00006860,0.00021483,0.00008212,
 0.00010458,-0.00013798,0.00023410,-0.00031833,0.00005941,0.00071629,0.
 00391803,0.00323907,-0.02871816,-0.00500263,-0.00027000,-0.00320116,0.
 00101016,-0.00010439,0.00071870,-0.05218634,0.00555153,0.03273055,-0.0
 0304027,-0.00781461,0.01140362,0.05869771,-0.00007621,-0.00014150,0.00
 057232,-0.00011409,0.00003342,0.00010912,-0.00005049,-0.00007511,-0.00
 012634,0.00030429,0.00021455,-0.00001199,-0.00054966,0.00011100,-0.003
 55830,0.00004514,0.00078376,-0.00032670,0.00052714,0.00029542,-0.00014
 072,0.00045424,-0.03809819,0.02787090,-0.00632721,-0.01142256,0.022880
 69,-0.00619693,0.04852908,0.00078218,-0.00027307,0.00059912,-0.0001545
 6,0.00006734,-0.00003484,-0.00008436,-0.00011368,0.00047344,-0.0006817
 0,0.00052507,0.00047587,0.00237178,0.00236746,-0.01525337,-0.00293413,
 -0.00066898,-0.00027243,0.00004377,-0.00032469,0.00046614,0.03276090,0
 .01316299,-0.30526344,0.00026487,0.00054670,-0.00540096,-0.03810546,-0
 .01350122,0.33058266,-0.00483667,-0.00068000,-0.00459469,-0.00020615,0
 .00015478,-0.00002404,-0.00131992,0.00150292,0.00066480,-0.00004918,-0
 .00019164,0.00002033,-0.02816314,0.03014956,0.01064705,0.00226612,0.00
 008461,0.00053097,0.00256466,0.00069580,0.00136799,-0.15749879,0.10303
 298,0.02258292,0.00538038,0.01233159,-0.00248726,-0.00355895,0.0064916
 2,0.00334395,0.60170378,-0.00021800,-0.00062168,0.00020253,-0.00049642
 ,0.00130360,-0.00001161,-0.00004435,0.00062725,-0.00019160,0.00009339,
 0.00011806,-0.00005248,0.00399067,-0.00226211,0.00149496,-0.00107454,-
 0.00038125,-0.00021812,0.00072296,0.00118494,0.00023901,0.08360139,-0.
 12460673,-0.04101249,0.00802936,-0.05994835,-0.00220296,0.00087054,-0.
 00301466,-0.00185450,-0.11513709,0.20981316,-0.00323904,-0.00072542,-0
 .00253135,-0.00007873,0.00018939,-0.00010951,-0.00108936,0.00081244,0.
 00079625,-0.00040905,0.00010444,0.00062500,-0.01248943,0.01530139,0.00
 768072,-0.00006484,0.00029771,0.00162212,0.00065651,0.00070796,0.00031
 199,0.02616985,-0.05105107,-0.12000117,-0.00189639,-0.00656063,0.00394
 064,0.02467327,-0.03093821,-0.00853016,0.06491688,0.06053674,0.6848406
 7,-0.00080530,-0.00047203,-0.00131326,-0.00002598,0.00011679,0.0000022
 7,-0.00029370,0.00040894,0.00017888,0.00000056,-0.00005163,0.00005724,
 -0.00178002,0.00441134,0.00349277,0.00023112,-0.00001150,-0.00009817,0
 .00049178,-0.00001393,0.00018936,-0.01918437,-0.00639775,-0.01222075,0
 .00023317,-0.00105959,0.00007781,0.00040868,-0.00047251,0.00033443,-0.
 34649641,-0.00372308,-0.17244933,0.36006017,0.00131024,0.00080038,0.00
 049276,-0.00009475,-0.00001392,0.00009077,0.00029894,-0.00032509,-0.00
 018638,0.00002055,-0.00001623,0.00000569,0.00105152,-0.00276099,-0.002
 90271,-0.00025049,-0.00008524,-0.00010483,0.00030130,0.00031435,-0.000
 04842,0.02819571,-0.00613172,0.01597593,0.00174257,0.00301006,-0.00009
 599,-0.00067674,0.00043490,-0.00046711,-0.04043938,-0.01990030,-0.0421
 7039,0.00866707,0.02758380,0.00058995,-0.00038700,0.00077932,-0.000013
 45,0.00004416,-0.00001372,0.00019485,-0.00016054,-0.00007119,-0.000063
 87,0.00011109,-0.00002494,0.00149524,-0.00210212,-0.00020751,0.0001589
 5,-0.00019556,0.00043642,-0.00016970,-0.00011037,-0.00020385,0.0110298
 2,0.00514349,0.00799157,-0.00091207,-0.00293800,0.00069601,0.00014075,
 0.00055249,0.00004164,-0.15149625,-0.02268601,-0.14761484,0.17434520,0
 .02546684,0.15554769,-0.00020719,0.00037741,-0.00040275,0.00006840,-0.
 00018875,0.00000355,0.00001200,-0.00001299,-0.00008227,0.00022738,-0.0
 0020951,-0.00030226,0.00113023,-0.00109399,0.00183118,-0.00039825,0.00
 060214,-0.00115553,-0.00038876,-0.00008276,0.00003781,-0.00299671,-0.0
 0642681,0.02606866,0.00093416,0.00160003,-0.00076727,-0.00274003,0.004
 42983,0.00143093,-0.06950840,0.01620083,0.07495864,0.00683162,0.000952
 27,-0.03597653,0.06742464,-0.00020307,-0.00007948,0.00010539,0.0000975
 0,-0.00020764,-0.00006666,-0.00006752,-0.00003420,0.00007611,-0.000109
 79,-0.00000039,0.00009250,-0.00046260,0.00035985,-0.00026472,0.0002624
 5,0.00028601,0.00075289,-0.00061830,-0.00011609,0.00024935,0.00734836,
 -0.00667872,-0.03183068,0.00133455,0.00343876,-0.00168552,0.00353375,-
 0.00197853,-0.00071500,0.00755019,-0.01901069,0.05055197,-0.00206196,-
 0.00255884,-0.00357532,-0.01577910,0.02728813,-0.00030961,0.00001664,0
 .00007820,0.00003393,-0.00007483,-0.00000831,-0.00005098,-0.00000955,0
 .00004276,-0.00015149,0.00006176,-0.00005502,-0.00024424,0.00021780,0.
 00198838,0.00089130,0.00027122,-0.00007066,0.00002774,-0.00008762,-0.0
 0006729,0.00284901,0.00033966,-0.01118302,0.00054769,0.00251276,-0.000
 04098,0.00136688,-0.00159952,0.00163514,0.05399448,0.01026027,-0.42112
 895,0.00767663,0.00376172,-0.01676837,-0.06583823,-0.01457650,0.445258
 27,-0.00061691,0.00154462,-0.00023683,0.00013223,-0.00136803,0.0001663
 9,-0.00019716,-0.00072533,0.00005636,-0.00013165,-0.00031035,0.0000893
 8,0.00131027,0.00250618,0.00012735,0.00001349,0.00014691,-0.00027651,0
 .00011876,-0.00021300,-0.00002309,-0.01684398,-0.04474053,0.00695388,0
 .00596810,0.04390452,-0.01160548,0.00116005,0.00202330,0.00071097,-0.0
 0078984,0.01013391,0.00082554,0.00052741,-0.00101418,0.00072713,-0.000
 38391,-0.00099856,-0.00090239,0.26974709,-0.00027966,0.00064609,0.0001
 6459,0.00017892,-0.00055413,-0.00008596,0.00002649,-0.00028143,-0.0000
 1470,-0.00004104,-0.00009575,0.00005280,0.00248890,0.00419223,-0.00108
 879,0.00009161,0.00030900,-0.00023861,0.00001218,-0.00035863,0.0002032
 8,-0.03442365,-0.08715731,0.01288641,0.02294785,0.05856331,-0.01617148
 ,0.00263632,0.00411723,0.00126408,-0.00434562,0.01903391,0.00252215,0.
 00087893,-0.00081375,0.00119061,-0.00051050,-0.00093757,-0.00147915,-0
 .14305553,0.17766243,0.00024223,-0.00036806,-0.00000839,-0.00008913,0.
 00033834,-0.00014863,0.00003070,0.00022829,0.00002787,-0.00005622,0.00
 006425,0.00004081,-0.00026330,-0.00142874,0.00031838,0.00031570,0.0000
 9908,0.00036950,0.00013508,0.00026984,0.00005834,0.01099719,0.02573084
 ,-0.00161346,-0.00923566,-0.02392449,-0.01219329,-0.00118064,-0.001706
 95,0.00048399,0.00032687,-0.00584230,0.00025955,-0.00037192,0.00024373
 ,-0.00072420,0.00021838,0.00104570,0.00043943,0.08373590,0.10318727,0.
 50455387,0.00009806,-0.00045790,0.00016332,-0.00022238,0.00026362,-0.0
 0032477,0.00007882,0.00023543,0.00001757,-0.00001924,0.00002371,0.0000
 2787,-0.00003213,-0.00070131,-0.00007987,0.00000678,0.00003701,0.00014
 760,-0.00012366,0.00006712,0.00007106,0.00117809,0.00266984,-0.0017038
 1,-0.00099305,-0.00611502,-0.00184729,0.00012256,0.00019049,0.00008749
 ,0.00025089,-0.00138372,-0.00008400,-0.00007129,0.00002707,0.00005008,
 -0.00009202,-0.00009784,0.00008485,-0.07190292,0.09081291,0.12069834,0
 .06759092,0.00008769,0.00000698,0.00014643,-0.00026677,0.00009440,-0.0
 0014075,0.00007808,0.00011460,0.00005342,-0.00009041,-0.00003696,0.000
 03063,-0.00003140,0.00013792,-0.00015553,0.00012584,0.00002488,0.00016
 105,0.00024647,0.00009559,0.00008228,0.00175228,-0.00033247,-0.0008431
 0,0.00342164,-0.00701386,-0.00867853,-0.00009909,-0.00001887,0.0003934
 3,-0.00080035,-0.00086473,0.00066280,-0.00010404,0.00015272,-0.0002258
 6,-0.00001189,0.00031745,0.00023841,0.06716307,-0.12799421,-0.16265851
 ,-0.07302992,0.13102347,0.00007643,-0.00045437,0.00020905,-0.00009381,
 0.00016564,-0.00009003,0.00009621,0.00014119,-0.00004241,0.00002360,0.
 00008123,-0.00006207,0.00015674,0.00035151,-0.00041474,-0.00004330,0.0
 0000872,0.00004936,-0.00001007,0.00004988,0.00009027,-0.00173028,-0.00
 393986,0.00112326,0.00118115,0.00540874,0.00130043,0.00024183,0.000247
 39,-0.00011817,-0.00029937,0.00237133,0.00000484,0.00007066,-0.0001413
 7,0.00021740,-0.00004614,-0.00014742,-0.00015902,0.07798980,-0.1455988
 1,-0.26369666,-0.09185153,0.16153872,0.28754647,-0.00020512,-0.0005196
 3,0.00003319,-0.00050929,0.00017339,0.00039205,0.00003192,0.00012302,-
 0.00002370,0.00009306,0.00018000,-0.00002412,0.00019224,0.00013880,-0.
 00001523,0.00008922,-0.00000290,-0.00011982,0.00003445,0.00007410,-0.0
 0001017,0.00213336,0.00360157,0.00125841,-0.00064610,-0.00607542,0.004
 19046,-0.00040741,-0.00067896,-0.00017104,0.00026162,-0.00156584,-0.00
 040053,-0.00012745,-0.00009170,-0.00010011,0.00008684,0.00027192,0.000
 02444,-0.18811102,0.06258190,-0.20550353,0.00413056,0.00155881,0.01423
 806,0.18295311,-0.00013773,0.00025935,-0.00003164,-0.00033949,0.000175
 38,0.00023097,0.00006115,0.00001218,-0.00000028,0.00011994,0.00002598,
 -0.00008200,-0.00021674,-0.00003452,0.00039621,-0.00016616,-0.00028244
 ,-0.00051658,0.00024953,0.00004384,-0.00026353,0.00195958,0.00128386,-
 0.00014157,0.00614049,-0.00516286,0.00934420,-0.00000178,0.00023003,-0
 .00040883,-0.00039997,-0.00147042,-0.00024127,-0.00011507,0.00030986,-
 0.00012788,0.00015379,-0.00008805,0.00014693,0.06500300,-0.04633142,0.
 06472168,-0.01254149,0.00429307,-0.02008252,-0.05976906,0.04673617,-0.
 00016153,0.00048247,-0.00014595,0.00049171,-0.00032441,-0.00004596,-0.
 00017844,-0.00025914,0.00004246,-0.00007851,-0.00019060,0.00004568,-0.
 00017583,-0.00006870,0.00063096,0.00009035,0.00002753,-0.00013644,-0.0
 0010501,-0.00011263,-0.00010321,0.00025556,0.00259360,-0.00025787,-0.0
 0291645,-0.00051765,-0.00211108,-0.00021355,-0.00032295,0.00011535,0.0
 0050537,-0.00103275,-0.00016581,0.00002818,0.00007977,-0.00008141,0.00
 002184,-0.00001210,0.00003942,-0.15833841,0.04320632,-0.22816710,-0.02
 545690,0.00939512,-0.02595799,0.18623164,-0.05294390,0.25629893\\0.000
 00024,0.00000007,-0.00000062,-0.00000044,-0.00000074,-0.00000087,-0.00
 000019,-0.00000105,-0.00000090,-0.00000050,-0.00000023,-0.00000046,0.0
 0000109,0.00000109,-0.00000056,0.00000056,-0.00000038,-0.00000064,0.00
 000101,-0.00000066,0.00000044,0.00000047,0.00000147,0.00000355,-0.0000
 0038,-0.00000032,-0.00000402,-0.00000016,-0.00000061,0.00000119,-0.000
 00017,0.00000014,0.00000137,0.00000074,0.00000083,0.00000124,0.0000008
 1,0.00000020,0.00000020,-0.00000130,-0.00000092,0.00000133,-0.00000078
 ,0.00000080,0.00000111,-0.00000099,0.00000032,-0.00000237\\\@
 The archive entry for this job was punched.


 Where a calculator on the ENIAC is equipped with 18,000
 vacuum tubes and weighs 30 tons, computers inthe future
 may  have only 1,000 vacuum tubes and weigh only 1 1/2 tons.
              ---Popular Mechanics, March 1949
 Job cpu time:       0 days  2 hours 32 minutes 34.2 seconds.
 Elapsed time:       0 days  2 hours 32 minutes 34.2 seconds.
 File lengths (MBytes):  RWF=    267 Int=      0 D2E=      0 Chk=     12 Scr=      1
 Normal termination of Gaussian 16 at Wed Jun 23 21:31:37 2021.
